/*--------------------------------*- C++ -*----------------------------------*\
  =========                 |
  \\      /  F ield         | OpenFOAM: The Open Source CFD Toolbox
   \\    /   O peration     | Website:  https://openfoam.org
    \\  /    A nd           | Version:  6
     \\/     M anipulation  |
\*---------------------------------------------------------------------------*/
FoamFile
{
    version     2.0;
    format      ascii;
    class       surfaceScalarField;
    location    "0.0008";
    object      phi;
}
// * * * * * * * * * * * * * * * * * * * * * * * * * * * * * * * * * * * * * //

dimensions      [1 0 -1 0 0 0 0];

internalField   nonuniform List<scalar> 
5786
(
0.150621
-9.35363e-15
0.150621
-3.77753e-14
0.150621
-8.14904e-14
0.150621
-6.10068e-14
0.150621
3.56909e-13
0.150621
2.89707e-12
0.150621
1.57377e-11
0.150621
7.52982e-11
0.150621
3.35497e-10
0.150621
1.41968e-09
0.150621
5.75758e-09
0.150621
2.25138e-08
0.150621
8.55475e-08
0.150621
3.18247e-07
0.150621
1.15979e-06
0.150621
4.12598e-06
0.150621
1.41679e-05
0.150617
4.61596e-05
0.150615
3.85605e-05
0.150621
-7.76496e-06
0.150622
-1.3285e-05
0.15062
-3.15826e-06
0.150622
-1.00899e-05
0.150623
-1.42413e-05
0.15062
-7.42915e-07
0.15062
1.34261e-06
0.150622
-8.24604e-06
0.150622
-8.59944e-06
0.150621
-3.63151e-06
0.150621
-6.04144e-07
0.150621
-1.30094e-07
0.150621
-3.26369e-08
0.150621
-9.45544e-09
0.150621
-3.19884e-09
0.150621
-1.10444e-09
0.150621
-3.28234e-10
0.150621
-4.70189e-11
0.150621
7.57599e-11
0.150621
1.72327e-10
0.150621
2.66137e-10
0.150621
4.72635e-10
0.150621
8.67489e-10
0.150621
1.72429e-09
0.150621
3.0835e-09
0.150621
5.11081e-09
0.150621
8.31385e-09
0.150621
1.0643e-08
0.150621
1.22167e-08
0.150621
1.42993e-08
2.03115e-08
0.150621
-9.85323e-15
0.150621
-4.40481e-14
0.150621
-8.67917e-14
0.150621
-6.59472e-14
0.150621
3.58963e-13
0.150621
2.95586e-12
0.150621
1.61264e-11
0.150621
7.7025e-11
0.150621
3.42559e-10
0.150621
1.44765e-09
0.150621
5.87203e-09
0.150621
2.30122e-08
0.150621
8.79476e-08
0.150621
3.30751e-07
0.150621
1.22658e-06
0.150622
4.50596e-06
0.150622
1.64822e-05
0.150616
5.83161e-05
0.150611
5.04229e-05
0.150621
-9.23847e-06
0.150623
-1.75713e-05
0.15062
-9.28835e-07
0.150622
-8.85028e-06
0.150625
-1.80222e-05
0.15062
-1.97293e-06
0.150619
3.09723e-06
0.150622
-8.26864e-06
0.150623
-9.75039e-06
0.150621
-4.62494e-06
0.150621
-8.2979e-07
0.150621
-1.79025e-07
0.150621
-4.4272e-08
0.150621
-1.23702e-08
0.150621
-4.09308e-09
0.150621
-1.43465e-09
0.150621
-4.47124e-10
0.150621
-8.36463e-11
0.150621
7.81379e-11
0.150621
1.95177e-10
0.150621
2.88642e-10
0.150621
5.08927e-10
0.150621
9.2472e-10
0.150621
1.87643e-09
0.150621
3.27801e-09
0.150621
5.26783e-09
0.150621
8.50016e-09
0.150621
1.045e-08
0.150621
1.17358e-08
0.150621
1.42539e-08
2.23184e-08
0.150621
-1.08802e-14
0.150621
-4.88221e-14
0.150621
-9.05942e-14
0.150621
-6.95555e-14
0.150621
3.66901e-13
0.150621
3.04401e-12
0.150621
1.6633e-11
0.150621
7.91708e-11
0.150621
3.50899e-10
0.150621
1.47901e-09
0.150621
5.99519e-09
0.150621
2.35291e-08
0.150621
9.034e-08
0.150621
3.42596e-07
0.150621
1.28676e-06
0.150622
4.84636e-06
0.150622
1.86358e-05
0.150616
6.8453e-05
0.150608
6.36862e-05
0.150621
-8.70982e-06
0.150625
-2.37405e-05
0.15062
1.20685e-06
0.150621
-5.64088e-06
0.150625
-2.2375e-05
0.150621
-4.92296e-06
0.150618
5.74585e-06
0.150621
-7.72432e-06
0.150623
-1.12408e-05
0.150621
-5.75899e-06
0.150621
-1.13584e-06
0.150621
-2.4696e-07
0.150621
-6.06066e-08
0.150621
-1.63346e-08
0.150621
-5.24348e-09
0.150621
-1.85719e-09
0.150621
-6.05344e-10
0.150621
-1.33131e-10
0.150621
7.73752e-11
0.150621
2.17937e-10
0.150621
3.1112e-10
0.150621
5.45628e-10
0.150621
9.80423e-10
0.150621
2.02763e-09
0.150621
3.4813e-09
0.150621
5.41535e-09
0.150621
8.74242e-09
0.150621
1.03259e-08
0.150621
1.11908e-08
0.150621
1.4092e-08
2.41619e-08
0.150621
-1.58207e-14
0.150621
-5.08482e-14
0.150621
-8.94285e-14
0.150621
-6.92779e-14
0.150621
3.91187e-13
0.150621
3.20224e-12
0.150621
1.7436e-11
0.150621
8.24509e-11
0.150621
3.63206e-10
0.150621
1.52369e-09
0.150621
6.1621e-09
0.150621
2.41812e-08
0.150621
9.30628e-08
0.150621
3.5453e-07
0.150621
1.34105e-06
0.150622
5.12837e-06
0.150622
2.04092e-05
0.150617
7.44167e-05
0.150605
7.84041e-05
0.150621
-5.5248e-06
0.150626
-3.19513e-05
0.15062
2.77213e-06
0.150618
6.22134e-07
0.150626
-2.64052e-05
0.150621
-1.05126e-05
0.150617
8.57679e-06
0.150621
-6.29385e-06
0.150623
-1.29438e-05
0.150621
-7.13995e-06
0.150621
-1.55813e-06
0.150621
-3.40358e-07
0.150621
-8.33803e-08
0.150621
-2.17533e-08
0.150621
-6.70824e-09
0.150621
-2.38748e-09
0.150621
-8.11048e-10
0.150621
-2.0082e-10
0.150621
7.22682e-11
0.150621
2.40704e-10
0.150621
3.34036e-10
0.150621
5.82385e-10
0.150621
1.03754e-09
0.150621
2.17963e-09
0.150621
3.70137e-09
0.150621
5.5585e-09
0.150621
9.02198e-09
0.150621
1.02684e-08
0.150621
1.0676e-08
0.150621
1.37515e-08
2.57162e-08
0.150621
-1.3508e-14
0.150621
-5.68739e-14
0.150621
-1.03885e-13
0.150621
-1.85317e-13
0.150621
-5.21045e-14
0.150621
1.16619e-12
0.150621
8.62887e-12
0.150621
4.56289e-11
0.150621
2.15017e-10
0.150621
9.50718e-10
0.150621
4.03737e-09
0.150621
1.65322e-08
0.150621
6.61335e-08
0.150621
2.62609e-07
0.150622
1.05546e-06
0.150623
4.58965e-06
0.150624
2.1096e-05
0.150616
7.3393e-05
0.150588
0.000111042
0.150622
-6.93414e-06
0.150633
-4.5552e-05
0.150618
6.84607e-06
0.150613
1.03534e-05
0.150629
-3.58835e-05
0.150625
-1.75048e-05
0.150614
1.38837e-05
0.150622
-4.58141e-06
0.150624
-1.56153e-05
0.150621
-7.69725e-06
0.150621
-2.12579e-06
0.150621
-4.80378e-07
0.150621
-1.15759e-07
0.150621
-2.9279e-08
0.150621
-8.56211e-09
0.150621
-3.04438e-09
0.150621
-1.07179e-09
0.150621
-2.90671e-10
0.150621
6.28144e-11
0.150621
2.64069e-10
0.150621
3.50561e-10
0.150621
6.20335e-10
0.150621
1.08898e-09
0.150621
2.34444e-09
0.150621
3.9503e-09
0.150621
5.70423e-09
0.150621
9.3046e-09
0.150621
1.02618e-08
0.150621
9.86532e-09
0.150621
1.26702e-08
2.748e-08
-0.0368544
0.0305215
-0.00271813
0.000222249
-0.0361042
-0.0116259
0.00409344
-0.205938
0.1331
-0.250977
0.144311
-0.178348
0.0178399
-0.232071
0.00255294
-0.245622
-0.0319741
-0.355931
0.115993
-0.391492
0.0644301
-0.540603
0.156052
-0.420014
-0.106217
-0.021059
-0.386616
0.0410216
-0.00964787
0.065339
-0.0366551
-0.019842
0.0139516
-0.00237027
-0.00231669
-0.0849663
-0.0384724
0.0335049
-0.117835
0.153989
-0.226675
0.351352
-0.203711
0.086445
-0.202781
-0.0840831
-0.343155
0.0464041
-0.419759
0.222997
-0.674239
0.350294
-0.664698
0.172595
-0.421569
-0.315518
-0.0198247
-0.75117
0.0371977
-0.0279298
0.120282
-0.0243319
-0.011532
0.0289485
-0.00338312
-0.00305289
-0.0910348
-0.0517413
0.0790587
-0.0950628
0.153089
-0.248725
0.569261
-0.150032
0.088014
-0.21098
-0.0434045
-0.431809
0.199263
-0.633633
0.437528
-0.599457
0.335894
-0.426591
0.0213999
-0.265533
-0.453751
-0.0329309
-0.968118
0.039768
-0.0760654
0.171243
-0.0238688
0.263633
-0.195344
-0.00434446
-0.00785632
0.211525
-0.149814
0.206096
-0.185996
0.22543
-0.221711
0.571345
-0.191989
0.175463
-0.275478
0.0238647
-0.409021
0.280008
-0.502583
0.549034
-0.427837
0.280952
-0.322504
-0.062392
-0.23168
-0.533479
-0.0409692
-1.16303
0.0527688
-0.150981
0.223187
-0.0275331
-0.0423394
-0.00560193
-0.0938639
-0.0244617
0.203138
-0.1795
0.320656
-0.230203
0.285302
-0.211824
0.463578
-0.206287
0.32602
-0.315824
0.12676
-0.371249
0.280296
-0.394813
0.579951
-0.389965
0.292499
-0.302782
-0.131788
-0.232051
-0.599296
-0.0492922
-1.36216
0.0881023
-0.285732
-0.0279197
0.274704
-0.125551
0.0840321
0.00499462
-0.0884499
0.418096
-0.390085
0.582404
-0.144501
0.459388
0.125429
0.512886
-0.0562862
0.52921
0.0815843
0.253611
0.298377
0.0914848
0.103855
0.0442217
0.00390175
0.0345267
0.0103717
0.0434043
0.00983824
-0.000197193
0.0663887
-0.0128174
0.00915258
0.000770266
-0.0971759
0.157923
0.00221657
-0.156844
0.337461
-0.701095
0.619109
-0.403879
0.757416
0.00323841
0.457247
0.251695
0.512222
0.0874259
0.303931
0.553705
0.20388
0.224028
0.0437212
0.0436785
0.032089
0.0185574
0.0476524
0.0193103
0.0146017
0.11955
-0.00307861
0.0302316
0.00457803
-0.0852306
0.214391
0.0205244
-0.250231
0.241322
-0.900426
0.431966
-0.559777
0.596716
-0.126713
0.68241
0.184802
0.48889
0.304939
0.362161
0.70807
0.265602
0.376169
0.0348044
0.13657
0.034031
0.0160078
0.0679184
0.0201729
0.0241269
0.179914
-0.00140591
0.0705111
0.00826524
-0.0891554
0.253407
0.0314951
-0.366076
0.233134
-1.07968
0.359376
-0.652624
0.449712
-0.178625
0.477193
0.185914
0.449707
0.341169
0.413539
0.731132
0.247762
0.587282
0.0569165
0.194759
0.0501794
0.0231615
0.0574592
0.0480717
0.0477202
0.218721
-0.000782179
0.135526
0.0143678
-0.113084
0.295878
0.0422481
-0.496331
0.252567
-1.26438
0.367553
-0.734986
0.489407
-0.260641
0.464533
0.247365
0.367854
0.460205
0.351123
0.727673
0.243979
0.717444
0.0766106
0.240529
0.0747651
0.0323817
0.0814575
0.0805236
0.062125
0.256837
0.0192285
0.169894
0.0417215
-0.150621
3.13582e-08
-0.150621
2.71184e-08
-0.150621
2.41421e-08
-0.150621
1.92265e-08
-0.150621
1.77359e-08
-0.150621
1.2137e-08
-0.150621
8.89462e-09
-0.150621
4.26424e-09
-0.150621
2.08557e-09
-0.150621
9.33023e-10
-0.150621
3.825e-10
-0.150621
-1.19138e-10
-0.150621
-6.79061e-10
-0.150621
-1.43615e-09
-0.150621
-1.80287e-09
-0.150621
-1.87538e-09
-0.150621
-1.51922e-09
-0.150621
8.79078e-10
-0.150621
1.1015e-08
-0.150621
5.2572e-08
-0.150621
2.34963e-07
-0.150621
9.68707e-07
-0.150621
3.12444e-06
-0.150621
5.51959e-06
-0.15062
6.67792e-06
-0.15062
8.16263e-06
-0.15062
9.28269e-06
-0.15062
9.59383e-06
-0.15062
1.07035e-05
-0.150618
2.07192e-05
-0.150619
2.69249e-05
-0.150619
2.85219e-05
-0.15062
2.85086e-05
-0.150621
1.33398e-05
-0.150621
6.26519e-06
-0.150621
1.95895e-06
-0.150621
5.63545e-07
-0.150621
1.60787e-07
-0.150621
4.50015e-08
-0.150621
1.23988e-08
-0.150621
3.38131e-09
-0.150621
9.1509e-10
-0.150621
2.43546e-10
-0.150621
6.23195e-11
-0.150621
1.5116e-11
-0.150621
3.6417e-12
-0.150621
8.52401e-13
-0.150621
1.75804e-13
-0.150621
2.91989e-14
-8.32667e-17
-0.150621
3.11836e-08
-0.150621
2.62273e-08
-0.150621
2.27054e-08
-0.150621
1.81942e-08
-0.150621
1.76659e-08
-0.150621
1.28028e-08
-0.150621
9.48721e-09
-0.150621
4.63406e-09
-0.150621
2.30127e-09
-0.150621
9.8584e-10
-0.150621
3.71466e-10
-0.150621
-2.20266e-10
-0.150621
-8.50567e-10
-0.150621
-1.58863e-09
-0.150621
-1.8859e-09
-0.150621
-1.928e-09
-0.150621
-1.2987e-09
-0.150621
2.11246e-09
-0.150621
1.68086e-08
-0.150621
7.72564e-08
-0.150621
3.45278e-07
-0.150621
1.40467e-06
-0.150621
4.2355e-06
-0.150621
6.60496e-06
-0.15062
7.59095e-06
-0.15062
9.40057e-06
-0.15062
1.03808e-05
-0.15062
1.05902e-05
-0.15062
1.22045e-05
-0.150618
2.43558e-05
-0.150619
3.02255e-05
-0.150619
3.20602e-05
-0.15062
3.33358e-05
-0.150621
1.58485e-05
-0.150621
8.01647e-06
-0.150621
2.28524e-06
-0.150621
6.12009e-07
-0.150621
1.69853e-07
-0.150621
4.68729e-08
-0.150621
1.27808e-08
-0.150621
3.45591e-09
-0.150621
9.30599e-10
-0.150621
2.4612e-10
-0.150621
6.18108e-11
-0.150621
1.44111e-11
-0.150621
3.41469e-12
-0.150621
7.96474e-13
-0.150621
1.60677e-13
-0.150621
2.76723e-14
-1.30451e-15
-0.150621
3.06081e-08
-0.150621
2.52574e-08
-0.150621
2.13118e-08
-0.150621
1.75116e-08
-0.150621
1.75579e-08
-0.150621
1.34859e-08
-0.150621
9.918e-09
-0.150621
5.03969e-09
-0.150621
2.53169e-09
-0.150621
1.03286e-09
-0.150621
3.36492e-10
-0.150621
-3.31824e-10
-0.150621
-1.04298e-09
-0.150621
-1.71937e-09
-0.150621
-1.95671e-09
-0.150621
-1.94544e-09
-0.150621
-9.42665e-10
-0.150621
3.86169e-09
-0.150621
2.43276e-08
-0.150621
1.09422e-07
-0.150621
4.90813e-07
-0.150621
1.9653e-06
-0.150621
5.45307e-06
-0.150621
7.49934e-06
-0.15062
8.50053e-06
-0.15062
1.06034e-05
-0.15062
1.14297e-05
-0.15062
1.16056e-05
-0.150619
1.42182e-05
-0.150618
2.80102e-05
-0.150619
3.30292e-05
-0.150619
3.51543e-05
-0.15062
3.85758e-05
-0.15062
1.8627e-05
-0.150621
1.00403e-05
-0.150621
2.6361e-06
-0.150621
6.60369e-07
-0.150621
1.78346e-07
-0.150621
4.87063e-08
-0.150621
1.31813e-08
-0.150621
3.53431e-09
-0.150621
9.48054e-10
-0.150621
2.49185e-10
-0.150621
6.13673e-11
-0.150621
1.36653e-11
-0.150621
3.16647e-12
-0.150621
7.36078e-13
-0.150621
1.46327e-13
-0.150621
2.13163e-14
-4.35763e-15
-0.150621
2.96993e-08
-0.150621
2.40868e-08
-0.150621
2.02041e-08
-0.150621
1.71331e-08
-0.150621
1.74487e-08
-0.150621
1.41642e-08
-0.150621
1.01751e-08
-0.150621
5.51106e-09
-0.150621
2.77129e-09
-0.150621
1.07318e-09
-0.150621
2.66855e-10
-0.150621
-4.57875e-10
-0.150621
-1.23713e-09
-0.150621
-1.83677e-09
-0.150621
-2.0158e-09
-0.150621
-1.91437e-09
-0.150621
-4.03664e-10
-0.150621
6.32078e-09
-0.150621
3.44631e-08
-0.150621
1.53524e-07
-0.150621
6.90332e-07
-0.150621
2.71527e-06
-0.150621
6.72854e-06
-0.150621
8.24388e-06
-0.15062
9.45781e-06
-0.15062
1.17764e-05
-0.15062
1.24073e-05
-0.15062
1.26925e-05
-0.150618
1.69011e-05
-0.150619
3.19455e-05
-0.150619
3.5131e-05
-0.150618
3.80241e-05
-0.15062
4.47969e-05
-0.15062
2.18591e-05
-0.150621
1.2367e-05
-0.150621
3.03072e-06
-0.150621
7.1227e-07
-0.150621
1.86501e-07
-0.150621
5.06061e-08
-0.150621
1.36521e-08
-0.150621
3.62992e-09
-0.150621
9.72104e-10
-0.150621
2.53982e-10
-0.150621
6.13485e-11
-0.150621
1.29765e-11
-0.150621
2.91089e-12
-0.150621
6.68965e-13
-0.150621
1.31034e-13
-0.150621
1.31839e-14
-8.43769e-15
-0.150621
2.97338e-08
-0.150621
2.27953e-08
-0.150621
1.94692e-08
-0.150621
1.69468e-08
-0.150621
1.76309e-08
-0.150621
1.45896e-08
-0.150621
1.07306e-08
-0.150621
6.0948e-09
-0.150621
3.03378e-09
-0.150621
1.0584e-09
-0.150621
1.93863e-10
-0.150621
-6.18332e-10
-0.150621
-1.3593e-09
-0.150621
-1.92904e-09
-0.150621
-2.10952e-09
-0.150621
-1.84403e-09
-0.150621
4.02682e-10
-0.150621
9.84974e-09
-0.150621
4.83395e-08
-0.150621
2.19051e-07
-0.150621
9.71754e-07
-0.150621
3.98315e-06
-0.150621
7.77812e-06
-0.150621
8.86262e-06
-0.15062
1.03655e-05
-0.15062
1.3018e-05
-0.15062
1.3461e-05
-0.15062
1.38435e-05
-0.150613
1.75997e-05
-0.150617
3.70818e-05
-0.150619
3.70279e-05
-0.150616
4.04248e-05
-0.15062
5.39197e-05
-0.15062
2.61312e-05
-0.150622
1.54805e-05
-0.150621
3.09247e-06
-0.150621
6.04745e-07
-0.150621
1.43464e-07
-0.150621
3.80958e-08
-0.150621
1.01086e-08
-0.150621
2.5886e-09
-0.150621
6.84018e-10
-0.150621
1.73533e-10
-0.150621
3.7436e-11
-0.150621
5.35189e-12
-0.150621
8.30913e-13
-0.150621
1.67139e-13
-0.150621
1.43198e-15
-0.150621
-2.55909e-14
-1.64154e-14
7.45574
1.74452e-14
2.5894
4.86634
4.06428
3.39146
4.04997
3.40577
3.91886
3.53688
7.45574
-6.35726
6.35726
6.39537
-6.39537
-6.50148
6.50148
-6.58921
6.58921
6.53891
-6.53891
6.51654
-6.51654
6.50646
-6.50645
6.53017
-6.53013
6.67149
-6.67457
6.74335
-6.73247
6.73248
-6.74047
6.73013
-6.72539
6.71415
-6.71556
6.71099
-6.71104
6.70921
-6.7093
6.71197
-6.71198
6.71943
-6.71943
6.72515
-6.72515
6.71754
-6.71754
6.70519
-6.70519
6.69427
-6.69427
6.63561
-6.63561
6.4654
-6.4654
6.61362
-6.61362
-7.45574
-2.522
-4.93374
-4.08574
-3.36999
-3.97876
-3.48887
-7.61095
-1.06118
-0.334638
-17.8646
1.71542
-3.32128
-2.69459
5.70199
-10.2773
0.131101
-4.37726
49.8253
0.510481
-3.28945
3.34136
-0.619605
-6.95893
150.261
-0.398913
-29.0552
53.7566
0.0592713
-2.35666
0.745421
-0.266267
-1.75406
2.0417
-0.584873
-10.4164
8.37185
-12.9998
-165.53
58.8265
-0.127859
-6.37312
3.16194
-0.00255416
-6.10373
21.271
-0.0411095
-15.7638
17.6221
0.578536
-4.47009
3.72345
0.211573
-4.85798
4.55631
-0.181077
-8.27504
8.86023
-0.00836838
-2.57974
1.65283
1.27014
-0.362301
0.140536
0.797871
-0.0939903
0.138031
0.00674932
0.0350807
0.169207
-1.3967
-0.172111
-0.025238
0.165687
-0.640721
0.0567568
0.389944
-0.559086
1.04276
-0.277648
0.0179717
-0.032494
-0.488262
2.06394
1.26608
-3.33215
0.876381
-0.714468
-0.807206
1.15131
1.20103
-0.907824
1.45152
-0.896413
1.34793
-1.20198
1.92014
-1.73995
2.62342
-2.0821
3.49838
-3.19841
2.09515
-2.20907
1.35533
-1.95446
1.07864
-2.43811
0.0051337
-0.300403
0.0343588
-0.184477
-0.111294
-0.471974
-0.0957179
-1.44678
1.44769
-0.000527309
-1.81253
1.81253
1.77616e-06
2.28517
-2.28517
-5.71272e-09
2.80432
-2.80432
-8.27191e-10
-3.55054
3.55054
-7.13171e-11
-4.50692
4.50692
4.78968e-13
-5.72963
5.72963
-1.10865e-13
-6.53303
6.53303
9.15541e-15
1.09848
-9.97773
0.219266
-0.0197513
-4.11511
6.70451
3.34062
7.4049
4.06631
3.38942
7.45777
7.43939
3.40908
4.04666
3.07862
4.37712
6.64291
-6.64291
6.38768
-6.38768
6.57634
-6.57634
-6.56587
6.56587
-6.52339
6.52339
-6.51391
6.51391
-6.5033
6.50331
-6.59556
6.59634
-6.7182
6.71884
-6.74946
6.749
-6.73084
6.73116
-6.72678
6.72578
-6.71512
6.71716
-6.71339
6.71285
-6.71176
6.71172
-6.72131
6.72131
-6.72169
6.72169
-6.71732
6.71732
-6.71265
6.71265
-6.70677
6.70677
-6.67597
6.67597
-6.55698
6.55698
-6.4767
6.4767
-0.0128781
-6.19075
6.19075
-4.46275
-2.99299
-3.51307
-3.94275
-3.25678
-4.61208
-0.113794
-1.27377
-7.73643
-7.06847
-0.165611
-3.6721
-0.853702
-0.00774242
-0.517194
169.657
-108.472
1.52474
2.38665
-3.30769
0.46322
5.5267
-216.748
-0.830579
1.16552
-3.65637
-0.233573
7.9989
-4.97355
-0.716223
0.998505
-2.73514
-0.238361
1.5743
-1.80677
-0.920159
9.79694
-14.6967
-1.16319
85.6159
-4.25461
3.71866
1.69557
-4.84865
-1.10017
4.25651
-35.3741
-0.103178
12.3771
-10.5481
7.23249
12.0205
-17.2057
0.189854
4.40053
-8.4289
-0.0267412
4.92912
-4.26431
-0.0120785
0.199644
-0.403326
0.976935
0.156693
-0.139755
0.262473
0.10597
-0.203269
0.0783853
1.28309
0.29876
-1.73019
0.128815
-0.254312
0.242535
0.0618903
-1.30301
1.23601
0.420377
0.408316
0.280739
0.524436
0.401967
0.642286
0.571813
0.505569
0.780678
1.37152
-1.09148
-0.857648
-0.840859
-2.71109
1.30645
-1.28018
-0.00328376
1.62598
-1.62584
3.99253e-05
-2.03818
2.03818
7.344e-08
0.246989
-2.59944
2.59944
-3.62149e-09
0.204882
3.07029
-3.07029
-2.09743e-10
3.99718
-3.99718
3.72444e-12
5.08862
-5.08862
-1.49025e-12
6.40825
-6.40825
8.72051e-14
0.922704
7.32793
7.45242
6.6155
0.00768167
-0.0748586
0.0233462
0.015514
0.00263608
0.00316826
-0.0653092
-0.0513889
-0.00251134
0.000693825
0.00423397
-0.00173439
-0.00252458
-0.00262238
-0.00935244
-0.0022597
0.00783224
0.00489518
-0.00158152
0.0183004
0.0786241
-0.0112966
0.422868
-7.59882
-7.31936
-1.99911
-0.577335
0.307436
-0.093372
3.32598
9.94761
-0.310713
-1.24023
0.103646
-0.16448
-1.40733
0.0343023
0.60932
-2.04381
-3.00746
-1.55425
-1.46976
0.0970098
0.0324858
1.50271
0.0476257
-0.811697
-0.603174
2.66481
0.70588
0.179293
0.225651
0.314271
0.265966
0.446636
0.581706
0.678623
0.0068533
0.00745689
-0.0267859
-0.0758864
-0.0189287
0.0104357
0.00834145
0.00524555
0.00811651
0.00344498
-0.000289579
0.0018811
-0.0034644
-0.000225949
0.00745574
0.0125015
0.0403664
0.0915775
-0.136914
-7.83274
-7.4332
-10.2026
-0.0467334
-0.411098
-6.00618
0.034493
-0.142934
-0.306903
-0.509638
0.224679
-2.01299
-4.8912
-1.51308
-3.19186
0.404029
-1.41121
0.163415
0.185155
-0.536088
-0.0890604
0.247546
0.0269612
-0.285653
-7.92673
0.218451
-0.158726
2.34797
0.124782
0.641005
0.509739
0.186693
0.168202
0.480255
3.70844
3.69646
4.53098
2.08452
5.4756
3.86599
3.58644
6.22449
-6.2168
-4.16595
-3.76078
-3.78699
-6.53401
6.56097
6.56647
-6.64133
4.35803
-6.02706
6.60141
-6.57807
0.0674029
-4.24374
-3.35509
-6.51609
6.51873
6.49268
-6.4895
6.50191
-6.56683
-6.79236
6.75733
6.68538
-6.69092
6.79278
-6.78703
-6.65015
6.6381
6.79793
-6.79947
6.71887
-6.66105
6.71664
-6.73331
6.71589
-6.72549
6.72869
-6.73095
-6.72937
6.7372
-6.71604
6.72093
6.70783
-6.70941
6.71543
-6.69713
-6.60684
6.68546
-6.35379
6.3425
-4.34112
-3.49162
-8.50707
-7.73536
-6.63335
6.62047
-0.0668757
0.0423998
6.60089
-3.39519
-6.37738
-3.77219
-3.64835
-2.94128
-9.13371
7.62297
-4.22022
-6.52038
6.40659
-0.295895
-0.234743
-1.90848
1.90722
-7.6355
7.76028
-8.51529
14.5193
0.037079
-4.13504
39.0018
0.0644122
-29.0154
12.2219
-0.102136
-47.8997
44.9796
34.7689
-17.5995
-10.0066
4.26619
-4.37479
5.5695
-21.916
22.7958
-7.66927
7.77362
-1.96529
8.54131
-8.40181
8.79946
-5.83921
4.17299
-4.67549
4.88424
3.98074
-7.88116
-9.29612
5.78399
7.48501
-7.0645
5.39421
-4.99786
-1.18412
1.26262
0.82185
-0.925158
-1.55793
0.823992
0.0198193
6.40342
-6.15588
0.186619
1.46843
-1.00468
-0.696703
0.800572
-1.19375
1.24646
-0.885947
0.528123
0.626343
2.49324
-2.24626
1.74019
-1.56084
3.75158
-3.27132
-2.0109
2.23655
0.482348
-1.34566
1.51552
0.393953
-3.09661
3.36257
0.654968
-2.84701
3.0519
0.51556
5.30295
-4.72124
-1.7866
1.9733
0.449954
6.65397
-5.97535
-4.20914
4.71888
1.09381
6.51985
-6.513
0.00376678
-5.26834
5.90934
1.38564
5.78904
1.58724
-0.977486
-1.20518
1.8574
2.7601
-2.43352
3.67154
-3.00453
3.04367
-1.69828
0.441958
-1.54806
-1.26955
0.495829
0.193747
-2.87615
-1.04484
-0.96606
-3.93712
2.51635
-1.72869
3.60037
3.72757
7.46636
8.25855
-3.46281
4.90434
-0.102482
7.56012
-7.54777
-9.56144
0.600259
-0.524747
0.668404
0.324327
-1.84646
6.82263
0.00110926
6.69495
3.68735
3.75204
7.27379
0.311062
-7.92897
6.64411
0.00687976
6.75116
6.51044
0.0505334
6.52595
-2.27158
0.0421061
1.1881
7.27446
-6.50796
6.51542
-6.49344
6.4667
-6.6882
6.61422
6.76794
-6.8428
0.0245942
0.0134849
-6.65369
6.7935
-6.7073
6.67286
-6.72933
6.73388
-6.71148
6.71066
-6.72812
6.72997
6.72289
-6.72636
6.71912
-6.71935
-6.71476
6.72221
-6.71024
6.72274
6.70956
-6.66919
6.57543
-6.48386
6.37345
-6.51036
-7.1249
-0.650855
-0.176691
2.82999
-7.09438
-38.3158
-3.96663
-3.46848
-35.2694
-7.3219
0.0107746
-7.13591
-0.000718079
1.78493
5.76231
-5.0598
-50.552
-0.348104
-36.4215
4.27893
-14.5887
0.0723661
0.0811976
7.3647
-0.907788
7.01256
-3.60785
5.73817
-15.7171
22.473
-9.06644
6.14287
-16.6976
2.91456
-3.855
10.3951
-9.44346
2.31826
-11.3539
6.26296
-1.68232
6.0391
5.88788
-7.41281
-6.11634
8.83995
-6.26403
5.90145
-2.20225
4.85385
-0.519607
0.585092
-1.27421
0.00308632
-0.00648006
0.562552
4.85805
1.11859
0.412548
-0.600445
0.0129537
3.8934
3.56437
7.60184
7.31641
2.52515
0.526752
-0.00118888
2.83942
-3.74248
4.18911
8.55452
0.9764
1.32588
0.934286
1.16819
-0.0666164
-1.23942
1.55771
-1.02535
0.70766
-0.751448
-0.319683
-0.515435
1.18493
0.221639
-0.844246
0.917794
0.59316
-0.608493
-1.21131
-0.369793
0.40863
-3.04749
-1.8726
-0.681313
-0.885025
-0.184087
-0.32902
0.0177454
0.102723
-0.195362
-0.597986
-0.0242555
-0.167867
0.201606
0.0462406
-0.00240994
0.00617485
0.0178463
0.00232676
-0.012389
0.00306011
-0.00202677
-0.00155058
-0.00102758
0.0256056
-0.0154866
0.0128026
-0.000644277
0.00019503
-0.154839
-0.0999454
0.0259324
-0.0613118
0.0130642
0.0130228
-1.71803
-0.34903
-0.302931
-0.0108333
-0.0167304
-0.159501
0.00349526
0.129176
-0.468052
0.0473258
-2.02295
-0.548243
10.1395
-6.08057
43.0488
-26.4805
-7.28936
7.45985
-7.29121
7.07654
-6.50728
6.51808
-6.92519
6.95838
-5.56318
7.34812
2.99133
-4.32911
-3.11645
-6.47439
6.3772
6.77219
-6.83946
-0.121163
-6.3566
6.27563
-6.49312
6.54365
3.0122
-2.41904
5.05383
-6.5716
-6.75407
6.75223
-6.32927
6.19869
7.13177
-6.21978
0.0224741
-6.73261
6.74541
-6.80722
6.82282
-6.7384
6.76401
6.75158
-6.81595
-0.00594019
-1.07318
1.60735
6.75475
-6.76125
6.66607
-6.47322
0.00999627
6.75188
-6.74571
0.0192744
6.83551
-6.84725
-0.0285119
6.74232
-6.74473
0.00391598
3.92793
-2.23681
0.761148
-1.59797
-6.58733
6.78894
2.02951
-1.73932
-6.0814
5.91353
-3.21254
-4.10953
1.16553
-0.851301
6.43814
-6.43851
-0.0342913
-0.730235
-23.9345
-5.72558
-19.6664
6.3853
-6.01778
0.0410818
7.15236
-7.27199
0.0152129
-8.90738
13.1184
2.98678
-3.88723
-3.26815
-7.10179
-6.42455
6.60428
-6.53687
0.111159
-9.60755
5.5957
1.85339
-5.56533
5.50225
-0.959071
-9.60445
6.16415
6.71112
-8.29596
-12.1234
13.189
-2.00061
6.57672
0.246319
-22.8734
21.3949
2.26075
6.80167
-6.69894
0.214334
-14.4692
4.48551
5.87364
-6.06408
-10.993
11.9933
-4.00603
5.96917
-8.33955
6.9374
-7.32845
7.36288
-1.00155
0.811055
-1.47332
-9.06888
6.33608
-2.04047
6.58176
-6.36012
0.500363
6.02
-6.58388
5.75857
-4.92852
-3.47351
3.30906
6.74993
-6.74684
0.00420991
-5.70198
5.8886
-7.62696
15.6061
0.0575329
-4.92463
6.11273
0.633347
7.10493
-7.51797
-0.0142677
-5.41776
6.53635
2.84079
0.834365
1.80319
-1.40937
3.8207
-3.16574
1.72298
-0.67826
-3.06316
3.57872
0.757548
-2.77802
3.30477
0.800701
-20.4904
14.631
0.732135
6.53899
-6.53522
0.0317324
6.70866
-5.32302
1.78403
2.0251
1.45602
-1.1515
0.483442
0.652382
4.93073
-3.95433
-0.388691
1.52887
1.82681
-0.612137
0.47018
-1.47669
4.31324
-3.39545
1.14751
1.53528
-8.94738
6.51341
-3.79506
20.3246
-17.1893
-0.0864871
-5.41127
-6.66385
5.9124
-0.750318
-2.59467
0.504561
-1.72783
0.991176
-1.02795
0.606759
-0.503363
5.55791
-4.4641
1.60359
1.64862
2.06217
-1.61221
2.3889
-1.90655
6.51526
-6.68384
-0.290338
2.15559
-3.63462
-0.591658
-2.62643
-11.4887
14.2888
9.45446
-1.31986
0.484179
-0.560619
3.58621
3.68758
-0.969634
0.428818
-0.0154937
4.47736
3.12448
-1.11767
6.75679
-0.00206251
6.77462
3.21531
4.25105
6.80151
7.09184
0.0131029
-6.49877
6.52478
0.0193927
-0.00301148
-0.297036
0.000677369
-7.09825
7.23758
6.46273
-6.5219
-1.59759
1.54955
0.512617
-0.00842236
1.05316
-6.76693
6.7691
-0.00982301
-6.725
6.77124
-1.42543
-0.71615
6.69103
-6.75791
0.02159
0.0864968
0.276986
6.47587
0.0677829
6.48883
-8.60171
-0.552635
-11.3416
8.26686
-8.95305
21.059
-12.1757
-0.0115508
-0.0680935
-0.0854357
-4.63915
-2.259
-8.5106
3.21074
-3.55686
-1.48141
0.0572156
3.44612
-5.0739
2.46314
-5.29103
-6.90975
4.61338
-0.644336
-0.724843
19.8271
-0.973507
4.49745
-0.802065
4.25521
0.02777
-1.17209
0.486508
6.50389
-0.615287
6.20799
-0.847637
-0.857404
1.37185
0.628141
-6.61279
6.65519
0.0782476
0.118313
1.35841
-0.716565
0.579705
0.688288
1.21948
1.96215
0.55275
0.897593
-0.0156115
0.258092
-1.29204
-1.20394
-0.80784
0.77669
6.55969
-6.79444
-0.198217
-4.71444
-3.02093
-7.30911
-7.13047
-0.780159
-0.653028
0.102164
-0.875539
-1.11297
0.0390108
0.0450291
0.00762989
0.072298
3.1838
-0.0463831
-4.42389
-0.838324
-0.0776851
-0.101036
-1.81855
0.848126
38.0777
-19.9838
-6.78721
6.82621
-6.81746
6.81826
-6.90915
6.34027
-6.92143
6.83578
28.4495
-21.6456
-7.29486
7.41146
9.11186
-4.51304
7.46869
2.31726
-1.54056
-7.20407
5.23003
-6.49592
6.51534
-7.81068
1.2918
-33.5508
-6.62617
5.39922
79.1644
-44.1066
9.06291
-8.56744
0.0518392
-6.52105
6.25168
-13.7191
15.9891
0.346776
6.86838
-10.484
-1.79876
2.31138
0.518495
7.18139
-7.05472
0.0951525
8.44046
-8.43537
-0.0108874
-6.7852
6.80452
6.73164
-6.54409
-0.159754
6.8006
-6.7967
0.0133826
-2.08282
1.10391
-6.55804
6.98685
-5.98332
4.4096
18.3773
-14.0206
-6.42322
6.37686
3.22194
-4.32755
-187.079
127.124
5.5811
6.68258
-6.62661
0.0678113
6.79392
-6.79356
-0.00281141
8.04748
-7.61335
0.0674374
-2.88667
3.16953
-0.0129105
11.2048
-8.34049
3.4581
-22.3436
-1.10291
2.00824
-1.54284
30.9952
0.756611
3.87864
-4.73417
-2.09563
-1.4764
8.2565
-6.24903
0.00136033
10.0128
-9.29033
0.0128334
6.22783
-6.31539
-0.148932
0.711335
-1.35566
-33.6448
38.4118
-0.109234
6.47181
-6.40402
0.0486224
4.57857
-3.60237
6.97044
-6.7561
0.412399
12.5447
-13.6387
3.3663
-3.27714
-15.1024
3.11878
-0.211029
7.0958
-8.13918
-6.80285
6.83028
-8.18828
13.5883
-0.0428198
2.11965
-0.950541
-14.4707
15.9404
0.0368364
-6.40601
6.65664
0.0865253
4.04711
3.2693
7.17159
6.95688
9.1142
-6.43286
0.123709
3.79136
-2.99065
-4.57371
13.2678
3.61507
6.49255
-6.46079
-0.00320256
-19.0902
23.5066
0.452953
6.81438
-6.81778
0.00753805
1.92546
-1.06474
6.56932
-6.77924
-0.190089
6.79667
-6.83173
-0.0370676
-44.8328
28.0261
8.28267
6.79961
-6.79554
0.0144166
-1.57464
12.6705
0.0296153
1.30576
-2.00629
-7.62373
6.2706
6.3398
-6.57797
-0.00603639
-0.170436
-1.50093
2.05378
0.810485
-3.77184
3.03139
-1.4318
6.23277
-6.26142
-0.26448
6.58884
-6.47768
0.184833
0.371359
0.0840027
-4.81189
6.59592
1.6743
-3.21487
0.134448
-2.27666
1.03303
2.75832
-0.592948
0.0107407
0.536886
-5.14278
0.0524489
-2.30928
1.37855
-0.125103
-3.23398
-0.037335
-1.16212
-6.69985
6.77809
-0.597792
-0.00545552
-0.239802
-7.80727
-3.06289
-9.8152
6.86206
-6.78977
-0.0153329
3.57815
3.22336
-1.15629
1.53483
2.10922
-3.64405
0.398375
0.930512
-0.0838862
-4.13289
5.73647
0.743642
1.30933
1.10565
-5.00628
4.82857
0.034472
-0.0877422
0.548947
-1.66432
0.951315
1.05275
-0.861075
-6.50098
6.5904
-2.89031
0.105959
-9.35944
0.0425437
-6.74126
0.0364433
-0.0771017
-1.26819
1.73837
-0.89093
-2.32551
0.929698
1.2294
6.60751
-6.10715
2.87002
-3.89422
0.133987
-0.586443
5.77654
-6.39183
-3.82263
-3.28089
1.70423
6.62205
-6.50374
0.144372
2.88206
4.07482
6.46021
-3.94853
0.957874
-3.19098
-5.46212
4.7118
1.1454
-2.59731
0.0149539
6.96057
-4.93547
2.14868
2.53322
6.24557
-4.59695
2.11268
1.99897
0.879701
-2.40227
1.36358
121.615
-15.7155
-1.02832
11.4931
6.86161
-7.05983
0.161767
-1.80372
1.18495
-4.15015
-1.65746
-2.74346
-3.42821
4.96349
2.30827
-2.99426
-3.66182
-3.46866
-6.25913
-7.29143
0.00487604
-2.02264
0.0558718
-1.69845
0.334398
-2.33518
-3.82344
0.632457
-2.67593
4.45296
2.71863
6.98618
6.79346
-0.898448
2.57275
-6.95229
7.01209
4.33766
-3.30462
7.8431
-7.20456
-9.25006
10.073
0.274356
-6.4906
6.60898
-6.29383
5.41314
-0.572449
-2.3125
0.615938
-1.56912
6.45389
-6.936
-0.272051
2.96376
-4.37132
6.93379
-6.68525
0.539153
-4.54478
7.89391
-2.81216
3.16839
-0.111623
-3.10392
0.462926
-4.071
4.58179
0.326566
6.99521
-6.32232
-1.64287
0.887766
4.50183
-2.96701
3.60338
1.37065
-6.84792
6.85908
15.4049
-22.9221
0.885726
-6.50023
6.84981
1.96384
4.82396
-4.70192
-5.49806
3.33549
-6.85108
6.88358
-1.523
2.66058
4.59026
-7.11535
-6.63239
7.20352
-6.64868
6.53057
0.124352
0.59234
6.84862
-6.85172
-0.00173536
6.84387
-6.26255
0.590554
7.77243
-3.89268
13.8575
-11.8676
6.85427
-6.84384
0.00279699
-8.42372
10.4572
2.38078
-4.35386
0.587436
-1.46225
-0.904673
-0.586276
65.2558
-68.5683
-3.91807
2.38364
0.00427401
5.92338
-5.56102
0.462117
15.9519
-13.7683
5.11603
-5.0339
-1.7615
7.0182
0.140695
-6.31158
6.3603
-1.1096
2.08685
-1.9938
0.72713
-1.37682
-6.35478
7.23447
-2.00297
1.11108
-6.49624
32.8162
-0.721548
6.58463
-6.56696
0.100259
-1.192
2.2071
7.28249
-6.87016
0.927331
-11.2143
17.3989
-0.00164578
9.20501
-9.08273
0.0733143
-5.5962
3.67858
-0.0952321
-8.45233
9.65086
-8.66966
0.592189
-10.859
13.7203
0.18651
6.98119
-6.87549
0.110223
-13.2015
25.607
0.414727
-7.14549
9.27705
-0.0679423
5.26774
-4.43338
-37.6112
43.8559
-0.147004
-8.46254
4.56989
-3.85823
-7.0517
6.46525
-1.27516
-0.594576