/*--------------------------------*- C++ -*----------------------------------*\
  =========                 |
  \\      /  F ield         | OpenFOAM: The Open Source CFD Toolbox
   \\    /   O peration     | Website:  https://openfoam.org
    \\  /    A nd           | Version:  6
     \\/     M anipulation  |
\*---------------------------------------------------------------------------*/
FoamFile
{
    version     2.0;
    format      ascii;
    class       volVectorField;
    location    "0.0008";
    object      U;
}
// * * * * * * * * * * * * * * * * * * * * * * * * * * * * * * * * * * * * * //

dimensions      [0 1 -1 0 0 0 0];

internalField   nonuniform List<vector> 
3704
(
(650 -8.96068e-13 0)
(650 -3.14207e-12 0)
(650 -6.70884e-12 0)
(650 -7.40138e-12 0)
(650 2.08466e-11 0)
(650 1.99072e-10 0)
(650 1.1257e-09 0)
(650 5.49305e-09 0)
(650 2.48027e-08 0)
(650 1.06124e-07 0)
(650 4.34603e-07 0)
(650 1.71311e-06 0)
(650 6.54183e-06 0)
(650 2.43583e-05 0)
(650 8.85573e-05 0)
(650 0.000313161 0)
(650 0.00105637 0)
(650 0.00333541 0)
(650 0.0027257 0)
(650 -0.000638774 0)
(650 -0.000957236 0)
(650 -0.00038184 0)
(650 -0.000902632 0)
(650 -0.00101057 0)
(650 -4.87904e-06 0)
(650 -6.0321e-06 0)
(650 -0.000702924 0)
(650 -0.000670185 0)
(650 -0.000245958 0)
(650 -4.13417e-05 0)
(650 -8.95562e-06 0)
(650 -2.27496e-06 0)
(650 -6.74245e-07 0)
(650 -2.30244e-07 0)
(650 -7.84236e-08 0)
(650 -2.25216e-08 0)
(650 -2.43184e-09 0)
(650 6.28645e-09 0)
(650 1.3528e-08 0)
(650 2.15461e-08 0)
(650 3.87636e-08 0)
(650 7.11909e-08 0)
(650 1.39899e-07 0)
(650 2.54954e-07 0)
(650 4.31113e-07 0)
(650 7.08538e-07 0)
(650 9.31223e-07 0)
(650 1.07903e-06 0)
(650 1.22398e-06 0)
(650 1.63305e-06 0)
(650 -8.01072e-13 0)
(650 -3.51853e-12 0)
(650 -7.26451e-12 0)
(650 -5.46408e-12 0)
(650 3.08086e-11 0)
(650 2.52529e-10 0)
(650 1.37463e-09 0)
(650 6.57123e-09 0)
(650 2.92534e-08 0)
(650 1.23714e-07 0)
(650 5.01775e-07 0)
(650 1.96418e-06 0)
(650 7.48441e-06 0)
(650 2.79923e-05 0)
(650 0.000102894 0)
(650 0.000371779 0)
(650 0.0013174 0)
(650 0.00449544 0)
(649.999 0.00377548 0)
(650 -0.000730451 0)
(650 -0.00128813 0)
(650 -0.000197432 0)
(650 -0.000846075 0)
(650 -0.0013542 0)
(650 -9.8458e-05 0)
(650 0.000167543 0)
(650 -0.000713973 0)
(650 -0.000780236 0)
(650 -0.00035078 0)
(650 -6.02238e-05 0)
(650 -1.29536e-05 0)
(650 -3.22818e-06 0)
(650 -9.19965e-07 0)
(650 -3.08355e-07 0)
(650 -1.07293e-07 0)
(650 -3.26223e-08 0)
(650 -5.41167e-09 0)
(650 6.6462e-09 0)
(650 1.57722e-08 0)
(650 2.38627e-08 0)
(650 4.22307e-08 0)
(650 7.71401e-08 0)
(650 1.54838e-07 0)
(650 2.73696e-07 0)
(650 4.47335e-07 0)
(650 7.24175e-07 0)
(650 9.09525e-07 0)
(650 1.03566e-06 0)
(650 1.23338e-06 0)
(650 1.83357e-06 0)
(650 -8.7894e-13 0)
(650 -4.00464e-12 0)
(650 -7.65557e-12 0)
(650 -5.50669e-12 0)
(650 3.28893e-11 0)
(650 2.66749e-10 0)
(650 1.44906e-09 0)
(650 6.89271e-09 0)
(650 3.05546e-08 0)
(650 1.2879e-07 0)
(650 5.21577e-07 0)
(650 2.0432e-06 0)
(650 7.81847e-06 0)
(650 2.9497e-05 0)
(650 0.000109957 0)
(650 0.000407957 0)
(650.001 0.00152446 0)
(650 0.00551128 0)
(649.999 0.00489507 0)
(650 -0.0007848 0)
(650 -0.00175845 0)
(650 1.08619e-05 0)
(650 -0.000656404 0)
(650 -0.0017385 0)
(650 -0.000275474 0)
(650 0.000379196 0)
(650 -0.00069722 0)
(650 -0.000902395 0)
(650 -0.000448135 0)
(650 -8.37077e-05 0)
(650 -1.80744e-05 0)
(650 -4.44848e-06 0)
(650 -1.22128e-06 0)
(650 -3.98658e-07 0)
(650 -1.40477e-07 0)
(650 -4.47377e-08 0)
(650 -9.11864e-09 0)
(650 6.79075e-09 0)
(650 1.78875e-08 0)
(650 2.59383e-08 0)
(650 4.55631e-08 0)
(650 8.23586e-08 0)
(650 1.68696e-07 0)
(650 2.91778e-07 0)
(650 4.61429e-07 0)
(650 7.43768e-07 0)
(650 8.95412e-07 0)
(650 9.89801e-07 0)
(650 1.22645e-06 0)
(650 2.01291e-06 0)
(650 -1.14506e-12 0)
(650 -4.31046e-12 0)
(650 -7.82905e-12 0)
(650 -6.44286e-12 0)
(650 3.10158e-11 0)
(650 2.62079e-10 0)
(650 1.43879e-09 0)
(650 6.84409e-09 0)
(650 3.02953e-08 0)
(650 1.27581e-07 0)
(650 5.17327e-07 0)
(650 2.03326e-06 0)
(650 7.82644e-06 0)
(650 2.97867e-05 0)
(650 0.000112507 0)
(650 0.00042906 0)
(650.001 0.00168015 0)
(650 0.00618207 0)
(649.999 0.00629408 0)
(650 -0.000715001 0)
(650 -0.00247405 0)
(650 0.000245189 0)
(650 -0.000198517 0)
(650 -0.00219381 0)
(650 -0.000665824 0)
(650 0.000668863 0)
(650 -0.000618391 0)
(650 -0.00105399 0)
(650 -0.000546872 0)
(650 -0.000115184 0)
(650 -2.51374e-05 0)
(650 -6.10819e-06 0)
(650 -1.61489e-06 0)
(650 -5.08386e-07 0)
(650 -1.80086e-07 0)
(650 -5.96735e-08 0)
(650 -1.38461e-08 0)
(650 6.71665e-09 0)
(650 2.00559e-08 0)
(650 2.79347e-08 0)
(650 4.88692e-08 0)
(650 8.73383e-08 0)
(650 1.82358e-07 0)
(650 3.10937e-07 0)
(650 4.74242e-07 0)
(650 7.68262e-07 0)
(650 8.8898e-07 0)
(650 9.40065e-07 0)
(650 1.19736e-06 0)
(650 2.1749e-06 0)
(650 -1.24878e-12 0)
(650 -4.68474e-12 0)
(650 -8.36335e-12 0)
(650 -1.02245e-11 0)
(650 1.79361e-11 0)
(650 2.04375e-10 0)
(650 1.19572e-09 0)
(650 5.83196e-09 0)
(650 2.62068e-08 0)
(650 1.11749e-07 0)
(650 4.59054e-07 0)
(650 1.82648e-06 0)
(650 7.12035e-06 0)
(650 2.75239e-05 0)
(650 0.000106528 0)
(650 0.000428382 0)
(650.001 0.00180205 0)
(650 0.00641414 0)
(649.999 0.00806954 0)
(649.999 -0.000486066 0)
(650 -0.003328 0)
(650 0.000394145 0)
(650 0.000454251 0)
(650 -0.00268222 0)
(650 -0.00121424 0)
(650 0.000985365 0)
(650 -0.000463775 0)
(650 -0.00123893 0)
(650 -0.000633175 0)
(650 -0.000153308 0)
(650 -3.43816e-05 0)
(650 -8.28977e-06 0)
(650 -2.12214e-06 0)
(650 -6.4184e-07 0)
(650 -2.28055e-07 0)
(650 -7.82948e-08 0)
(650 -2.00032e-08 0)
(650 6.17932e-09 0)
(650 2.18818e-08 0)
(650 2.96724e-08 0)
(650 5.18515e-08 0)
(650 9.18422e-08 0)
(650 1.95044e-07 0)
(650 3.3004e-07 0)
(650 4.86187e-07 0)
(650 7.90253e-07 0)
(650 8.85045e-07 0)
(650 8.88599e-07 0)
(650 1.1458e-06 0)
(650 2.29604e-06 0)
(91.5763 -4.73545 1.15152e-19)
(363.331 264.185 -4.38892e-20)
(294.951 250.923 -4.63636e-19)
(518.446 75.1007 9.0483e-18)
(488.153 24.7481 -1.99399e-19)
(504.519 4.46593 2.46331e-17)
(627.306 135.951 0)
(551.581 -15.9349 -4.32497e-18)
(436.713 -144.888 1.0257e-18)
(333.958 -187.223 6.46159e-17)
(249.928 -204.599 2.68424e-18)
(206.506 -160.769 -9.4122e-17)
(157.693 -81.201 -7.76164e-17)
(12.5474 -67.6671 0)
(8.60823 -147.575 4.50042e-18)
(74.8898 24.7535 0)
(192.455 341.054 -2.12186e-17)
(340.293 250.48 0)
(504.204 88.5224 -8.80306e-18)
(484.775 40.0561 -1.55173e-17)
(512.657 101.365 -3.60191e-17)
(593.88 198.282 -3.28912e-17)
(573.45 -8.64069 1.50412e-18)
(434.074 -172.763 2.74953e-17)
(316.241 -214.379 -3.38139e-17)
(270.774 -235.032 -6.85341e-17)
(246.835 -175.93 -2.28378e-18)
(208.459 -102.879 6.48457e-17)
(11.5694 -39.7514 0)
(-1.76473 -137.734 4.3765e-18)
(61.2944 182.651 0)
(126.977 441.16 1.19736e-17)
(375.594 295.55 -2.09811e-17)
(453.191 139.146 0)
(459.994 80.5582 3.51966e-17)
(488.18 125.03 4.53835e-17)
(557.571 130.751 2.37203e-17)
(562.411 -73.1671 1.63567e-18)
(409.722 -193.621 -2.65974e-17)
(327.106 -232.165 -6.60316e-17)
(293.546 -230.469 1.37829e-16)
(292.123 -169.166 6.77478e-17)
(266.879 -109.548 5.5365e-17)
(12.7666 -9.43514 2.17819e-17)
(-11.4325 -132.405 -2.14356e-18)
(27.4972 197.521 0)
(248.438 427.628 -9.58146e-18)
(417.965 320.071 1.38951e-17)
(431.141 184.257 2.60397e-19)
(463.657 94.0216 3.06702e-18)
(483.904 105.5 -6.71695e-17)
(544.413 86.6035 2.49432e-17)
(546.128 -105.468 1.65051e-18)
(407.729 -217.082 -5.31727e-17)
(343.327 -232.921 6.39351e-17)
(315.316 -211.215 -1.28963e-16)
(329.482 -161.185 -1.81018e-18)
(323.361 -111.62 -2.02258e-18)
(10.3219 28.6725 5.71756e-19)
(-21.1502 -129.305 -2.18328e-18)
(120.09 244.311 0)
(321.749 451.74 1.98681e-17)
(466.381 350.346 2.32188e-19)
(454.048 201.957 0)
(474.398 81.1935 -2.1044e-17)
(500.814 63.9746 6.10392e-17)
(546.423 32.037 -2.12145e-17)
(529.898 -127.853 -1.22507e-18)
(416.17 -235.058 7.59435e-17)
(345.758 -230.583 8.27595e-19)
(325.97 -204.363 6.09361e-17)
(346.708 -161.447 -1.23658e-16)
(359.17 -117.148 -4.89097e-17)
(-3.8642 73.5436 -6.52243e-17)
(-33.4207 -127.326 4.07164e-18)
(0.74237 80.4834 0)
(10.4825 -41.761 -1.39446e-18)
(188.238 100.455 -4.42126e-18)
(243.294 179.552 9.63455e-17)
(292.954 228.314 0)
(391.959 203.025 8.80368e-17)
(456.951 189.556 3.10416e-17)
(498.756 148.14 -6.88065e-19)
(555.787 33.8313 -3.49059e-19)
(592.877 -166.12 1.07388e-18)
(616.401 -63.5345 2.80172e-18)
(465.029 -143.287 5.07573e-17)
(494.85 -209.701 -1.22498e-19)
(288.517 -270.726 0)
(64.1641 -188.084 -7.81583e-18)
(-5.76563 77.2299 0)
(20.048 -53.4341 0)
(246.336 109.331 -7.63274e-17)
(289.799 181.25 -8.10408e-17)
(319.908 236.138 -1.13856e-18)
(377.666 218.216 4.18904e-18)
(463.617 174.25 3.40192e-17)
(510.616 157.267 -1.63785e-19)
(577.998 22.139 1.96833e-17)
(646.554 -247.832 4.15662e-17)
(650.917 -293.684 0)
(455.277 -235.705 -2.59356e-17)
(480.426 -224.801 1.11581e-17)
(308.383 -301.074 2.35886e-19)
(81.5379 -200.593 0)
(-13.4011 75.249 0)
(32.1986 -69.2871 -1.01554e-18)
(299.516 111.405 9.67284e-19)
(330.579 171.393 -6.73047e-17)
(341.247 216.948 0)
(379.93 228.952 -6.96126e-17)
(453.516 186.741 -9.05703e-17)
(516.103 184.128 0)
(596.213 36.6031 -1.79037e-17)
(686.597 -175.616 3.10769e-18)
(606.786 -328.318 -1.71984e-18)
(400.67 -302.542 5.23084e-19)
(429.58 -255.839 -3.0157e-17)
(264.429 -328.156 0)
(113.815 -237.256 0)
(-20.8152 74.975 0)
(37.6218 -91.2796 0)
(337.864 118.441 5.97808e-17)
(353.476 168.862 6.33776e-17)
(352.784 206.373 6.49345e-17)
(385.085 226.028 -2.30815e-19)
(455.112 214.063 5.46817e-17)
(512.521 219.71 -6.95305e-19)
(613.543 87.4723 1.87791e-17)
(696.375 -116.35 -3.63008e-17)
(590.364 -297.356 2.63343e-18)
(395.102 -273.651 -9.87885e-19)
(401.579 -280.603 1.13008e-17)
(275.462 -361.977 2.79695e-19)
(152.895 -295.138 -7.46442e-18)
(-31.1971 76.1784 0)
(28.6736 -118.463 -8.99859e-19)
(360.657 129.368 -1.95166e-19)
(362.881 173.233 -6.03926e-17)
(353.843 210.348 -6.07633e-17)
(381.712 230.087 -9.79019e-19)
(456.474 235.775 2.64783e-17)
(516.941 247.413 7.22743e-19)
(633.993 139.706 -1.82082e-17)
(702.82 -67.0026 3.66045e-17)
(588.076 -228.452 4.47022e-17)
(426.438 -208.693 -9.58974e-19)
(420.58 -277.795 -1.45214e-17)
(298.887 -394.54 0)
(211.568 -313.578 6.925e-18)
(650 -2.69949e-06 0)
(650 -2.38417e-06 0)
(650 -2.16189e-06 0)
(650 -1.73255e-06 0)
(650 -1.53253e-06 0)
(650 -1.00767e-06 0)
(650 -7.28578e-07 0)
(650 -3.46178e-07 0)
(650 -1.68072e-07 0)
(650 -7.65704e-08 0)
(650 -3.27419e-08 0)
(650 4.92257e-09 0)
(650 4.89016e-08 0)
(650 1.10033e-07 0)
(650 1.49173e-07 0)
(650 1.58826e-07 0)
(650 1.39241e-07 0)
(650 -1.98508e-08 0)
(650 -6.7013e-07 0)
(650 -3.35155e-06 0)
(650 -1.50391e-05 0)
(650 -6.26353e-05 0)
(650 -0.000208343 0)
(650 -0.000405434 0)
(650 -0.000523166 0)
(650 -0.000635201 0)
(650 -0.000733506 0)
(650 -0.000771081 0)
(650 -0.00084867 0)
(650 -0.00153956 0)
(650 -0.0021282 0)
(650 -0.00227387 0)
(650 -0.00220752 0)
(650 -0.00100806 0)
(650 -0.000451994 0)
(650 -0.000145854 0)
(650 -4.28572e-05 0)
(650 -1.2293e-05 0)
(650 -3.44984e-06 0)
(650 -9.52839e-07 0)
(650 -2.60379e-07 0)
(650 -7.05103e-08 0)
(650 -1.87723e-08 0)
(650 -4.81972e-09 0)
(650 -1.17899e-09 0)
(650 -2.84006e-10 0)
(650 -6.60769e-11 0)
(650 -1.34829e-11 0)
(650 -2.10029e-12 0)
(650 9.82286e-14 0)
(650 -2.70312e-06 0)
(650 -2.30528e-06 0)
(650 -2.02382e-06 0)
(650 -1.61379e-06 0)
(650 -1.52816e-06 0)
(650 -1.07323e-06 0)
(650 -7.92807e-07 0)
(650 -3.82295e-07 0)
(650 -1.88372e-07 0)
(650 -8.26727e-08 0)
(650 -3.28388e-08 0)
(650 1.41457e-08 0)
(650 6.48942e-08 0)
(650 1.29526e-07 0)
(650 1.5847e-07 0)
(650 1.64036e-07 0)
(650 1.23488e-07 0)
(650 -1.19563e-07 0)
(650 -1.16953e-06 0)
(650 -5.46675e-06 0)
(650 -2.44185e-05 0)
(650 -9.98499e-05 0)
(650 -0.000312887 0)
(650 -0.000521816 0)
(650 -0.000613574 0)
(650 -0.000754333 0)
(650 -0.000845495 0)
(650 -0.000867716 0)
(650 -0.000982338 0)
(650 -0.00193033 0)
(650 -0.0024604 0)
(650 -0.00261081 0)
(650 -0.00264706 0)
(650 -0.00124802 0)
(650 -0.000607015 0)
(650 -0.000181923 0)
(650 -5.06221e-05 0)
(650 -1.42579e-05 0)
(650 -3.96203e-06 0)
(650 -1.08589e-06 0)
(650 -2.94935e-07 0)
(650 -7.96191e-08 0)
(650 -2.11273e-08 0)
(650 -5.36071e-09 0)
(650 -1.27819e-09 0)
(650 -3.05738e-10 0)
(650 -7.14624e-11 0)
(650 -1.45781e-11 0)
(650 -2.51527e-12 0)
(650 5.57533e-14 0)
(650 -2.66722e-06 0)
(650 -2.22199e-06 0)
(650 -1.89546e-06 0)
(650 -1.53502e-06 0)
(650 -1.51993e-06 0)
(650 -1.13622e-06 0)
(650 -8.40127e-07 0)
(650 -4.17637e-07 0)
(650 -2.08701e-07 0)
(650 -8.74349e-08 0)
(650 -3.08395e-08 0)
(650 2.38465e-08 0)
(650 8.20706e-08 0)
(650 1.43786e-07 0)
(650 1.66667e-07 0)
(650 1.68281e-07 0)
(650 9.97083e-08 0)
(650 -2.4867e-07 0)
(650 -1.74519e-06 0)
(650 -7.92749e-06 0)
(650 -3.5511e-05 0)
(650 -0.000143231 0)
(650 -0.000419265 0)
(650 -0.000612654 0)
(650 -0.000695262 0)
(650 -0.000863564 0)
(650 -0.00094312 0)
(650 -0.000958823 0)
(650 -0.00114044 0)
(650 -0.00226403 0)
(650 -0.00273902 0)
(650 -0.00290778 0)
(650 -0.00309753 0)
(650 -0.00148616 0)
(650 -0.000776842 0)
(650 -0.000213702 0)
(650 -5.55666e-05 0)
(650 -1.52399e-05 0)
(650 -4.18387e-06 0)
(650 -1.13684e-06 0)
(650 -3.06371e-07 0)
(650 -8.23592e-08 0)
(650 -2.17288e-08 0)
(650 -5.41292e-09 0)
(650 -1.23883e-09 0)
(650 -2.91041e-10 0)
(650 -6.78515e-11 0)
(650 -1.36813e-11 0)
(650 -2.2563e-12 0)
(650 2.193e-13 0)
(650 -2.59832e-06 0)
(650 -2.12432e-06 0)
(650 -1.78633e-06 0)
(650 -1.49104e-06 0)
(650 -1.51258e-06 0)
(650 -1.19841e-06 0)
(650 -8.71977e-07 0)
(650 -4.57851e-07 0)
(650 -2.30047e-07 0)
(650 -9.09402e-08 0)
(650 -2.57568e-08 0)
(650 3.5182e-08 0)
(650 1.001e-07 0)
(650 1.56143e-07 0)
(650 1.7485e-07 0)
(650 1.70645e-07 0)
(650 6.41992e-08 0)
(650 -4.24749e-07 0)
(650 -2.48805e-06 0)
(650 -1.11779e-05 0)
(650 -5.01559e-05 0)
(650 -0.000203563 0)
(650 -0.000531995 0)
(650 -0.000682693 0)
(650 -0.000772386 0)
(650 -0.000967218 0)
(650 -0.00103347 0)
(650 -0.00105087 0)
(650 -0.00133263 0)
(650 -0.00260788 0)
(650 -0.00295194 0)
(650 -0.00316168 0)
(650 -0.00363209 0)
(650 -0.00176007 0)
(650 -0.000978961 0)
(650 -0.000244884 0)
(650 -5.88382e-05 0)
(650 -1.56119e-05 0)
(650 -4.24091e-06 0)
(650 -1.14467e-06 0)
(650 -3.05879e-07 0)
(650 -8.19322e-08 0)
(650 -2.1466e-08 0)
(650 -5.21596e-09 0)
(650 -1.12176e-09 0)
(650 -2.54882e-10 0)
(650 -5.88546e-11 0)
(650 -1.15072e-11 0)
(650 -1.37262e-12 0)
(650 5.84989e-13 0)
(650 -2.56876e-06 0)
(650 -2.02516e-06 0)
(650 -1.70542e-06 0)
(650 -1.4656e-06 0)
(650 -1.51398e-06 0)
(650 -1.24284e-06 0)
(650 -9.0471e-07 0)
(650 -5.00631e-07 0)
(650 -2.50093e-07 0)
(650 -9.23751e-08 0)
(650 -2.03852e-08 0)
(650 4.63446e-08 0)
(650 1.13015e-07 0)
(650 1.64744e-07 0)
(650 1.79786e-07 0)
(650 1.65392e-07 0)
(650 1.01185e-08 0)
(650 -6.59698e-07 0)
(650 -3.44045e-06 0)
(650 -1.54349e-05 0)
(650 -6.87416e-05 0)
(650 -0.000284642 0)
(650 -0.000625859 0)
(650 -0.000737057 0)
(650 -0.000851004 0)
(650 -0.00107114 0)
(650 -0.00111787 0)
(650 -0.00114044 0)
(650 -0.00148618 0)
(650 -0.00297746 0)
(650 -0.00310735 0)
(650 -0.00339754 0)
(650 -0.00423152 0)
(650 -0.00206364 0)
(650 -0.00118996 0)
(650 -0.000266272 0)
(650 -5.80766e-05 0)
(650 -1.46921e-05 0)
(650 -3.9478e-06 0)
(650 -1.05716e-06 0)
(650 -2.78111e-07 0)
(650 -7.41475e-08 0)
(650 -1.91898e-08 0)
(650 -4.46624e-09 0)
(650 -8.52487e-10 0)
(650 -1.77225e-10 0)
(650 -3.99607e-11 0)
(650 -6.64469e-12 0)
(650 2.8974e-13 0)
(650 1.03698e-12 0)
(650 5.0434e-12 0)
(650 -4.35006e-12 0)
(650 -2.71148e-12 1.08353e-17)
(650 8.94487e-13 -1.12694e-17)
(650 7.69826e-13 0)
(650 -1.4133e-12 0)
(650 -5.9997e-12 1.10452e-17)
(650 -1.71126e-11 4.38818e-17)
(650 2.00586e-11 0)
(650 2.04408e-09 0)
(650 4.89977e-08 -2.1428e-17)
(650 9.29163e-07 -2.15072e-17)
(650 1.8949e-05 -2.15444e-17)
(650.001 0.000532853 -2.14728e-17)
(650.001 0.0147994 -2.10481e-17)
(649.995 0.00669617 2.07898e-17)
(650.002 -0.00451648 4.16414e-17)
(650 0.00200059 4.16269e-17)
(650 -0.00305055 0)
(650 -0.00160641 2.09304e-17)
(650 -0.000844423 -4.1848e-17)
(650 -5.2936e-05 -2.09259e-17)
(650 -3.52598e-06 0)
(650 -5.38643e-07 2.08849e-17)
(650 -3.90468e-08 -2.09085e-17)
(650 4.13595e-08 2.09468e-17)
(650 1.32032e-07 -2.09813e-17)
(650 4.7269e-07 4.22559e-17)
(650 7.92985e-07 0)
(650 6.89155e-07 0)
(650 1.56026e-06 3.75698e-17)
(650 -1.6193e-06 -1.07094e-17)
(650 -9.36435e-07 -1.09715e-17)
(650.037 -0.154255 -2.26908e-17)
(654.463 -14.6236 0)
(616.234 -43.5962 0)
(651.618 -6.88811 -1.06092e-17)
(655.287 -0.196831 0)
(654.175 5.89243 2.81178e-17)
(652.769 -7.49765 -6.86933e-19)
(661.291 -2.4558 1.7758e-17)
(657.637 -0.669018 -1.91876e-17)
(646.899 2.11305 2.40416e-17)
(651.695 -1.99627 -1.80653e-19)
(646.745 -18.7559 0)
(658.618 -6.85419 4.23297e-17)
(646.395 -1.74235 0)
(652.175 -7.33003 -2.1137e-17)
(651.461 0.586459 0)
(648.62 4.91216 -1.09226e-17)
(650.206 3.11599 -3.24333e-17)
(649.41 0.785584 0)
(614.515 1.55023 0)
(525.846 14.7081 5.23172e-17)
(557.52 -141.49 0)
(477.552 -146.756 4.98394e-18)
(563.767 -158.427 0)
(579.449 204.983 1.87075e-17)
(426.051 357.927 0)
(305.992 354.075 -1.47641e-17)
(420.717 332.577 1.26398e-17)
(649.796 0.0827434 -2.91921e-17)
(537.285 309.411 0)
(513.272 168.544 -3.00613e-18)
(512.122 61.8654 -9.32827e-18)
(519.731 -9.25754 -7.10584e-18)
(529.426 -54.8958 0)
(501.618 -179.776 -1.90252e-17)
(406.025 -263.827 -1.91942e-17)
(317.077 -275.789 -1.85048e-17)
(312.162 -242.354 1.70778e-17)
(358.41 -187.268 1.94888e-17)
(382.602 -124.508 0)
(-69.8762 207.406 4.64188e-17)
(-119.712 -130.649 1.05933e-17)
(490.28 -34.5217 6.37178e-18)
(648.715 1.24291 0)
(649.988 0.00651317 9.13596e-18)
(650 2.29214e-05 0)
(650 -4.4892e-08 0)
(650 -1.27581e-08 0)
(650 -7.13355e-10 0)
(650 -2.62594e-11 -1.50292e-17)
(650 1.4013e-11 0)
(650 -2.93811e-12 -7.61114e-18)
(650 -2.87363e-07 -1.93851e-17)
(619.984 -25.8973 1.2695e-17)
(24.7446 -233 -1.54998e-16)
(650 -3.72781e-12 0)
(650 -3.29339e-12 0)
(650 -2.82126e-12 -2.14669e-17)
(650 6.09962e-13 0)
(650 -6.83479e-13 1.09704e-17)
(650 -3.18743e-13 -3.51046e-19)
(650 9.9115e-13 3.3351e-17)
(650 1.34873e-12 -3.37178e-17)
(650 -1.01133e-11 3.17901e-17)
(650 -1.86083e-11 -2.1917e-17)
(650 3.25282e-10 0)
(650 1.04206e-08 -2.13355e-17)
(650 2.20514e-07 -2.14826e-17)
(650 4.04874e-06 0)
(650 9.174e-05 4.31148e-17)
(650.002 0.00446348 2.12774e-17)
(649.998 0.0105178 -2.08937e-17)
(650.001 -0.0016141 4.16419e-17)
(649.999 0.00147334 -2.08563e-17)
(650.001 -0.00255061 2.08938e-17)
(649.999 0.000437964 2.09062e-17)
(650 -0.00294482 -1.35948e-22)
(650 -0.000183875 2.09267e-17)
(650 -1.35594e-05 0)
(650 -1.31746e-06 0)
(650 -1.88299e-07 -2.09092e-17)
(650 1.1792e-08 0)
(650 7.84363e-08 2.09304e-17)
(650 2.96026e-07 2.10386e-17)
(650 6.17998e-07 0)
(650 6.654e-07 -2.16682e-17)
(650 3.70977e-09 0)
(650 1.11242e-06 2.27106e-17)
(650 8.32293e-07 1.04074e-17)
(650 -0.000728373 2.24454e-17)
(650.779 -5.27422 1.09872e-17)
(650 7.93666e-11 0)
(653.629 -3.59584 0)
(649.489 -1.74229 0)
(651.56 -6.37033 -2.08915e-17)
(175.292 195.393 -7.07418e-16)
(652.443 0.315553 2.01894e-17)
(662.381 0.359819 1.87936e-17)
(650.058 4.09971 0)
(666.264 -7.53336 1.96534e-17)
(650.525 0.5237 -2.75514e-17)
(650.623 -1.39161 -7.71614e-19)
(650.355 2.9793 0)
(650.041 -13.9785 0)
(650.942 -11.3407 2.599e-17)
(654.147 1.49347 0)
(645.475 -13.2208 2.23439e-17)
(652.733 -4.10723 0)
(648.149 3.77678 0)
(653.591 5.83048 -1.93694e-17)
(650.541 2.89892 -2.11819e-17)
(642.129 -1.55269 0)
(561.851 27.5228 0)
(553.795 -30.7991 -2.30315e-17)
(572.787 -116.599 0)
(386.731 -205.604 0)
(561.641 13.4586 0)
(518.468 285.944 1.21129e-17)
(556.044 61.9466 -5.47351e-19)
(594.726 375.421 0)
(481.666 413.894 -1.49302e-17)
(597.188 203.031 2.94293e-18)
(560.424 -18.3835 6.22698e-18)
(547.494 -79.4847 0)
(535.468 -143.496 -1.30862e-17)
(450.185 -253.071 5.54546e-17)
(350.675 -291.186 2.2565e-18)
(298.372 -300.434 -3.42635e-17)
(300.122 -272.167 -2.92217e-17)
(347.716 -200.73 0)
(368.092 -128.512 0)
(620.486 22.0416 1.74548e-17)
(649.813 0.109973 -1.1592e-17)
(649.999 0.000419839 0)
(650 -0.000129743 3.1943e-18)
(650 6.61938e-07 3.84975e-25)
(650 -5.31796e-07 1.65859e-17)
(650 -2.34632e-08 -4.43574e-27)
(650 -2.99905e-09 1.42066e-17)
(650 -1.16312e-10 -3.5705e-17)
(650 1.75274e-11 -2.2688e-17)
(650 8.43491e-12 0)
(650 8.64682e-13 -1.11483e-17)
(650 3.22913e-13 -1.12451e-17)
(650 6.40093e-13 1.24511e-17)
(650 8.32087e-12 4.21046e-20)
(650 5.8629e-10 0)
(650 2.13097e-08 0)
(650 6.30549e-07 2.1433e-17)
(650 1.71136e-05 0)
(650 0.000412589 -2.1528e-17)
(650.001 0.00934934 1.45729e-22)
(649.999 -0.00447634 2.0891e-17)
(650 0.0270587 -4.14583e-17)
(649.999 -0.0134333 -2.07749e-17)
(650.001 0.0120981 -4.16101e-17)
(649.999 -0.00687167 1.01731e-20)
(650 -0.00881304 2.08929e-17)
(650 -0.00174911 1.02387e-20)
(650 -0.00013249 4.07691e-20)
(650 -8.63421e-06 0)
(650 -1.77133e-06 -2.08799e-17)
(650 -1.25308e-07 2.09234e-17)
(650 1.20636e-07 -2.0929e-17)
(650 1.94155e-07 2.11313e-17)
(650 4.24734e-07 -2.14915e-17)
(650 7.28385e-07 0)
(650 1.01519e-06 0)
(650 -1.42234e-05 -2.18017e-17)
(649.62 -0.654228 1.10463e-17)
(642.231 -13.4044 -1.49382e-18)
(660.763 -4.17527 -5.79314e-19)
(650.855 -6.56127 -1.94467e-19)
(654.482 -0.614961 5.50405e-17)
(655.761 -7.93388 -2.82167e-17)
(652.838 -12.3515 2.1119e-17)
(649.14 10.5727 0)
(651.159 7.453 -2.31791e-17)
(647.255 -3.64458 -2.03689e-17)
(659.467 -8.87818 -2.4048e-17)
(645.305 0.750075 -2.16886e-17)
(650.564 1.21485 0)
(648.923 3.67941 0)
(652.075 10.0341 3.42998e-17)
(650.057 6.5343 3.25072e-17)
(646.52 3.70602 0)
(591.833 42.782 4.10352e-18)
(573.67 166.651 -3.05842e-17)
(623.107 60.3381 0)
(387.193 -104.081 -8.65962e-18)
(589.826 133.893 0)
(564.661 280.972 -9.56417e-18)
(649.433 1.02914 -1.13344e-20)
(390.008 -8.0042 -8.30195e-18)
(649.355 -0.313377 1.22243e-17)
(649.998 -0.00222035 -3.91432e-18)
(650 -7.0411e-06 -2.08257e-17)
(650 -6.76146e-08 1.40931e-17)
(650 -4.10113e-09 -1.68865e-17)
(650 -6.66072e-10 1.53756e-17)
(650 -4.90036e-11 2.53476e-17)
(650 3.31974e-06 4.30149e-17)
(650 8.53843e-05 2.15082e-17)
(650 0.00198986 -2.16173e-17)
(650.005 0.0199825 2.12051e-17)
(649.994 0.0226604 8.14345e-20)
(650.002 -0.0136708 -4.1581e-17)
(649.999 0.0223617 -1.50643e-21)
(650.001 -0.0229365 2.04078e-20)
(650 0.0100948 -4.1822e-17)
(650 -0.00781141 -8.35259e-23)
(650 -0.000447984 2.09317e-17)
(650 -2.57108e-05 0)
(650 -4.01561e-06 2.03859e-20)
(650 -6.06216e-07 2.08906e-17)
(650 4.78671e-08 0)
(650 1.78555e-07 -2.09125e-17)
(650 2.76283e-07 -4.23352e-17)
(650 5.26601e-07 3.41195e-19)
(650 7.72638e-07 2.18087e-17)
(650 3.03445e-06 1.02056e-17)
(649.997 -0.00265673 0)
(645.633 -12.4328 1.54589e-18)
(658.337 -10.8747 5.50683e-17)
(647.42 -2.5765 -4.49422e-17)
(654.392 14.2926 2.34618e-17)
(649.525 -5.66594 0)
(654.6 -6.92292 -3.57412e-17)
(645.206 -4.84093 2.64484e-20)
(649.401 0.217777 2.32752e-17)
(650.693 3.74497 3.7423e-20)
(649.511 6.28509 0)
(651.638 8.09519 2.03029e-17)
(651.057 2.93179 6.41847e-19)
(633.879 9.80392 0)
(559.916 96.7076 -1.72907e-17)
(597.382 206.94 1.58585e-17)
(512.94 19.379 -5.88414e-18)
(267.387 -231.962 0)
(603.168 269.377 -7.08026e-18)
(466.116 328.734 0)
(650 1.21084e-12 -4.26904e-17)
(650 1.17613e-07 2.10343e-17)
(650 -2.83676e-12 -1.0214e-17)
(650 -3.10078e-06 -1.11451e-17)
(669.02 -6.21659 -1.8129e-17)
(652.658 -2.12527 -2.30939e-17)
(658.25 -7.05625 -4.48721e-17)
(650 1.3735e-12 0)
(650 -1.62246e-10 3.5671e-17)
(650 -1.4054e-09 0)
(649.968 -0.0406569 -9.94917e-18)
(641.293 -7.95414 0)
(650 -1.8577e-08 -1.08611e-17)
(650 -1.01924e-11 2.15833e-17)
(650 4.10057e-12 0)
(650 7.18081e-13 2.01379e-17)
(650 3.67128e-12 0)
(650 1.53206e-11 -2.22329e-17)
(650 -6.31238e-07 1.09451e-18)
(650 -8.65155e-08 -3.42264e-17)
(650 2.57345e-07 3.34492e-19)
(650 1.43561e-09 -2.1346e-17)
(650.41 -8.73545 2.13836e-17)
(650 4.55234e-08 0)
(650 9.19578e-07 0)
(650 -4.776e-05 2.22149e-17)
(650 3.77117e-05 -2.15164e-17)
(650.001 0.000876426 -2.15903e-17)
(650.025 0.0195844 0)
(649.972 0.0409636 2.08919e-17)
(649.989 0.0258307 -1.918e-20)
(650.015 -0.00605574 5.07743e-21)
(649.976 0.0101566 2.08837e-17)
(650.026 0.00402059 -2.08774e-17)
(649.989 0.00402341 -2.08834e-17)
(650.004 -0.0217494 2.08635e-17)
(650 -0.00233511 -2.09019e-17)
(650 -5.88294e-05 -2.08593e-17)
(650 -5.88705e-06 2.08425e-17)
(650 -8.45395e-07 0)
(650 8.2091e-08 -2.0921e-17)
(650 2.27373e-07 2.09957e-17)
(650 2.86071e-07 4.279e-17)
(650 2.86086e-08 -2.22569e-17)
(650 -6.35418e-07 2.10079e-17)
(650 -1.74736e-07 -2.2533e-17)
(650 -2.31682e-07 -1.87417e-17)
(650 8.39574e-09 -6.21352e-27)
(650 3.08396e-08 2.10538e-17)
(650 1.7096e-07 -2.12245e-17)
(648.643 -14.115 2.22213e-17)
(638.575 5.11042 -4.4932e-18)
(649.967 -0.535288 -2.33214e-17)
(642.438 -7.20851 2.48557e-17)
(648.76 -19.4583 2.12492e-17)
(650 1.43184e-10 -2.17109e-17)
(650 7.63647e-10 2.35658e-17)
(650 5.50531e-09 2.17898e-17)
(565.554 -58.4386 5.44215e-18)
(650 -2.52993e-12 -1.77539e-17)
(651.233 -3.21341 -2.14424e-17)
(651.405 -1.71981 2.01229e-17)
(647.593 -22.7781 1.83001e-17)
(644.964 -11.8833 0)
(654.99 -6.50788 2.17214e-17)
(652.679 3.49454 -2.07097e-17)
(651.31 -15.2236 0)
(646.887 -2.13946 0)
(640.38 1.83234 2.21761e-17)
(649.063 0.520116 -2.18068e-17)
(653.612 -2.13014 -2.0069e-17)
(646.36 10.7696 0)
(646.46 9.82887 -4.6017e-20)
(652.707 10.6955 0)
(648.98 8.8558 -1.6647e-19)
(649.527 8.94458 2.09041e-17)
(648.876 33.0904 -1.30614e-17)
(645.362 124.455 -1.61305e-17)
(608.466 202.882 -1.20398e-17)
(531.304 168.932 -8.54722e-18)
(650.421 156.059 -1.31597e-17)
(640.748 189.253 0)
(526.365 210.084 -5.07716e-18)
(475.051 415.07 1.22859e-17)
(650 3.74904e-13 4.4092e-17)
(650 9.22755e-11 -5.73017e-30)
(585.554 19.1182 0)
(621.453 303.766 0)
(482.913 -75.7895 1.74668e-17)
(628.78 143.377 -4.64212e-18)
(673.714 175.445 1.3129e-17)
(644.1 19.5474 1.00834e-17)
(650 -3.22963e-07 4.38979e-17)
(649.424 -0.0646944 0)
(650 4.82619e-10 2.04175e-17)
(649.997 -0.000234483 -1.0751e-17)
(650 -0.000132893 -3.24612e-17)
(641.485 1.07983 -1.51798e-17)
(649.563 -0.960472 -6.70173e-18)
(650 1.35285e-08 -3.85418e-17)
(650 -1.24809e-08 1.11082e-17)
(650 2.49324e-07 -1.52147e-17)
(650 -1.04955e-07 2.05132e-17)
(650 -5.02008e-10 4.36181e-17)
(649.959 -0.00555716 -1.83984e-17)
(649.999 -0.00211635 2.39331e-17)
(650 -3.54161e-11 -3.60729e-17)
(650 -1.33403e-09 -1.25113e-17)
(650 -1.92121e-09 -1.13895e-17)
(650 7.90223e-06 2.15371e-17)
(650 8.94554e-05 0)
(650 -1.25231e-10 -3.80489e-18)
(650 -1.87631e-10 1.32656e-17)
(650 1.25203e-12 0)
(557.697 -68.2986 -1.68269e-17)
(523.915 -146.312 0)
(485.896 -228.386 0)
(402.449 -305.729 -3.64484e-17)
(303.514 -287.272 2.61457e-17)
(353.729 -193.234 -2.12602e-17)
(505.634 -165.571 2.4488e-17)
(546.958 -122.302 2.06204e-17)
(577.417 -70.6322 -2.12716e-17)
(548.46 -39.5506 -1.82854e-17)
(649.004 -5.41206 1.27849e-18)
(650.444 -4.95573 6.52007e-20)
(650 3.89883e-12 -2.26916e-17)
(650 3.37609e-12 0)
(650 4.59267e-12 2.38696e-17)
(650.681 -14.2241 2.075e-17)
(651.9 2.5041 -3.98723e-19)
(650 2.56637e-12 0)
(650 -1.52016e-06 2.07937e-17)
(647.12 -5.94679 -1.98424e-17)
(542.126 326.122 0)
(465.226 287.543 0)
(620.395 307.93 0)
(650 -1.43534e-11 1.03707e-17)
(650.034 -0.0818264 2.07638e-17)
(650.023 -0.0315062 -2.08164e-17)
(650 8.58111e-12 3.51897e-19)
(650 -2.02411e-12 7.22344e-19)
(635.985 -14.6213 -1.31778e-19)
(647.135 -5.40463 3.44235e-17)
(649.96 0.103051 -2.06658e-17)
(649.965 0.0504056 0)
(650 4.62096e-06 -2.17679e-17)
(650 1.51299e-06 7.42376e-25)
(647.062 -6.73812 -2.80821e-17)
(651.106 -9.14269 -4.63209e-17)
(650 -5.6334e-10 -1.70926e-17)
(650 3.31649e-13 0)
(650 0.000181595 -2.15205e-17)
(650.006 0.00433773 1.68664e-19)
(649.995 0.0694835 0)
(650.023 0.0062311 2.06389e-17)
(649.998 0.201638 0)
(649.99 -0.175844 -2.08126e-17)
(649.987 0.034798 -2.08932e-17)
(649.993 -0.00938439 -2.09444e-17)
(650.005 -0.01315 0)
(650.001 -0.0105104 2.08669e-17)
(650 -0.000300319 0)
(650 -1.52699e-05 -2.03822e-20)
(650 -2.59393e-06 2.08824e-17)
(650 -1.51066e-07 0)
(650 1.93104e-07 -2.10379e-17)
(650 2.43939e-07 0)
(650 1.64122e-07 -3.39109e-19)
(650 -1.27348e-07 -2.22373e-17)
(650 -6.05212e-07 1.06802e-17)
(526.491 213.715 0)
(650.029 0.132053 6.65452e-19)
(648.453 -2.8131 -3.84025e-18)
(649.293 -6.63452 1.92284e-17)
(650.002 -0.0131356 -1.12436e-17)
(649.745 -7.49232 -2.20948e-17)
(650 -0.000228877 0)
(650 0.000400908 4.30157e-17)
(649.952 -0.0708249 1.17568e-17)
(650.002 0.00766254 2.15538e-17)
(650 -4.65492e-11 9.68311e-18)
(650.286 -17.6389 -1.09235e-19)
(649.864 -11.0729 -3.40056e-20)
(649.593 -6.42333 0)
(650.1 -22.0323 -2.05079e-17)
(649.541 -10.634 0)
(648.414 -10.0048 1.66238e-18)
(643.182 -2.139 -2.27162e-17)
(646.1 2.28444 0)
(653.159 -5.79273 1.91368e-17)
(648.473 2.85433 -1.99046e-17)
(648.902 10.1999 2.21956e-17)
(648.361 7.61481 -2.20184e-17)
(651.631 12.4856 0)
(649.001 8.42031 -2.1853e-17)
(648.271 20.9255 1.23424e-17)
(649.34 14.2328 2.24445e-17)
(649.35 68.9678 -3.50985e-18)
(632.202 180.594 9.82447e-18)
(578.385 185.647 -1.7654e-17)
(471.545 135.716 7.37023e-18)
(656.065 130.982 1.11313e-17)
(630.001 220.026 -7.74491e-18)
(650 -4.18786e-06 0)
(650 -2.22061e-05 -2.08766e-17)
(593.719 -72.5761 1.25988e-17)
(650 -2.01473e-11 -1.06133e-17)
(650 1.19924e-11 -2.30139e-17)
(649.96 -0.0436773 -1.03417e-17)
(650.522 -3.8917 0)
(650 2.07446e-05 7.64374e-25)
(650 -5.73516e-12 2.20114e-17)
(650 9.04531e-13 -2.26876e-17)
(650 -3.90647e-12 0)
(650 -4.26805e-07 8.88155e-18)
(649.967 0.0731882 0)
(650 1.072e-06 -3.78854e-17)
(650 -1.43804e-09 0)
(650 -1.44028e-11 -2.27891e-18)
(650 -3.10377e-09 0)
(495.943 -237.013 0)
(545.129 -146.457 1.44628e-17)
(412.035 -323.783 2.38507e-17)
(346.858 -360.807 -1.73306e-17)
(246.981 -291.639 4.21311e-18)
(566.097 -77.2218 1.71587e-17)
(482.312 -212.108 5.65141e-17)
(650 -4.23899e-07 5.4255e-26)
(588.668 101.511 -1.72894e-17)
(559.091 121.274 2.89258e-17)
(615.086 155.712 -6.05621e-18)
(650 2.55754e-08 1.39019e-18)
(548.065 -158.013 0)
(650 -6.94616e-09 -1.86093e-17)
(650 -7.31948e-06 4.14787e-17)
(648.85 181.37 -3.6752e-18)
(509.563 144.395 5.73574e-18)
(588.684 123.519 1.48773e-17)
(640.379 127.122 -8.54503e-18)
(649.151 44.0674 0)
(649.749 10.6118 -1.99044e-17)
(647.806 6.8372 0)
(651.895 8.88029 4.72315e-21)
(645.728 7.48397 2.06179e-17)