/*--------------------------------*- C++ -*----------------------------------*\
  =========                 |
  \\      /  F ield         | OpenFOAM: The Open Source CFD Toolbox
   \\    /   O peration     | Website:  https://openfoam.org
    \\  /    A nd           | Version:  6
     \\/     M anipulation  |
\*---------------------------------------------------------------------------*/
FoamFile
{
    version     2.0;
    format      ascii;
    class       surfaceScalarField;
    location    "0.0001";
    object      phi;
}
// * * * * * * * * * * * * * * * * * * * * * * * * * * * * * * * * * * * * * //

dimensions      [1 0 -1 0 0 0 0];

internalField   nonuniform List<scalar> 
5786
(
0.150621
-6.18949e-15
0.150621
-5.66214e-15
0.150621
-7.91034e-15
0.150621
-5.55112e-17
0.150621
2.10942e-15
0.150621
2.41474e-15
0.150621
4.05231e-15
0.150621
7.21645e-16
0.150621
3.41394e-15
0.150621
2.77556e-17
0.150621
3.19189e-15
0.150621
-2.16493e-15
0.150621
-7.77156e-16
0.150621
4.71845e-16
0.150621
1.55431e-15
0.150621
5.60663e-15
0.150621
1.55431e-15
0.150621
-1.66533e-16
0.150621
-1.52656e-15
0.150621
-3.41394e-15
0.150621
-3.38618e-15
0.150621
-5.63438e-15
0.150621
-4.38538e-15
0.150621
-6.27276e-15
0.150621
-6.18949e-15
0.150621
-7.77156e-16
0.150621
-5.82867e-16
0.150621
-1.77636e-15
0.150621
-1.60982e-15
0.150621
3.60822e-15
0.150621
1.63758e-15
0.150621
2.02616e-15
0.150621
-7.77156e-16
0.150621
7.77156e-16
0.150621
-3.21965e-15
0.150621
-6.69464e-14
0.150621
-5.85393e-13
0.150621
-4.2126e-12
0.150621
-2.55602e-11
0.150621
-1.31906e-10
0.150621
-5.79505e-10
0.150621
-2.18757e-09
0.150621
-7.23331e-09
0.150621
-2.14848e-08
0.150621
-5.8574e-08
0.150621
-1.48383e-07
0.150621
-3.48348e-07
0.150621
-6.85402e-07
0.150622
-1.95868e-07
2.66875e-06
0.150621
-6.30052e-15
0.150621
-6.05072e-15
0.150621
-4.08007e-15
0.150621
-2.02616e-15
0.150621
5.88418e-15
0.150621
8.21565e-15
0.150621
2.88658e-15
0.150621
4.66294e-15
0.150621
3.46945e-15
0.150621
2.88658e-15
0.150621
3.08087e-15
0.150621
-6.93889e-16
0.150621
-2.02616e-15
0.150621
-1.249e-15
0.150621
-8.32667e-16
0.150621
1.9984e-15
0.150621
3.02536e-15
0.150621
3.21965e-15
0.150621
1.66533e-15
0.150621
-3.44169e-15
0.150621
-3.94129e-15
0.150621
-4.46865e-15
0.150621
-6.245e-15
0.150621
-6.88338e-15
0.150621
-5.71765e-15
0.150621
-1.30451e-15
0.150621
-1.38778e-15
0.150621
-3.9968e-15
0.150621
-4.05231e-15
0.150621
2.83107e-15
0.150621
2.96985e-15
0.150621
2.94209e-15
0.150621
-4.16334e-16
0.150621
2.2482e-15
0.150621
-3.38618e-15
0.150621
-6.66689e-14
0.150621
-5.76456e-13
0.150621
-4.08532e-12
0.150621
-2.43668e-11
0.150621
-1.2355e-10
0.150621
-5.33536e-10
0.150621
-1.98209e-09
0.150621
-6.46148e-09
0.150621
-1.89918e-08
0.150621
-5.12428e-08
0.150621
-1.28978e-07
0.150621
-3.03757e-07
0.150621
-6.75641e-07
0.150622
-4.53982e-07
1.72042e-06
0.150621
-6.96665e-15
0.150621
-4.57967e-15
0.150621
-3.60822e-15
0.150621
-2.22045e-15
0.150621
3.16414e-15
0.150621
2.72005e-15
0.150621
2.08167e-15
0.150621
4.96825e-15
0.150621
2.94209e-15
0.150621
2.63678e-15
0.150621
2.498e-16
0.150621
-2.77556e-16
0.150621
-4.16334e-16
0.150621
-1.4988e-15
0.150621
1.83187e-15
0.150621
2.9976e-15
0.150621
1.80411e-15
0.150621
2.52576e-15
0.150621
-1.19349e-15
0.150621
-2.41474e-15
0.150621
-3.2474e-15
0.150621
-5.35683e-15
0.150621
-9.60343e-15
0.150621
-7.66054e-15
0.150621
-8.71525e-15
0.150621
-3.30291e-15
0.150621
1.13798e-15
0.150621
5.82867e-16
0.150621
1.66533e-15
0.150621
-3.44169e-15
0.150621
3.63598e-15
0.150621
3.63598e-15
0.150621
2.498e-15
0.150621
4.71845e-16
0.150621
-6.99441e-15
0.150621
-7.26641e-14
0.150621
-5.96578e-13
0.150621
-4.09797e-12
0.150621
-2.3571e-11
0.150621
-1.15148e-10
0.150621
-4.80522e-10
0.150621
-1.7361e-09
0.150621
-5.56395e-09
0.150621
-1.62016e-08
0.150621
-4.34904e-08
0.150621
-1.09389e-07
0.150621
-2.58716e-07
0.150621
-6.20253e-07
0.150622
-5.40214e-07
6.05813e-07
0.150621
-5.46785e-15
0.150621
-1.52656e-15
0.150621
-5.55112e-16
0.150621
-3.46945e-15
0.150621
2.66454e-15
0.150621
3.52496e-15
0.150621
1.72085e-15
0.150621
3.05311e-16
0.150621
1.52656e-15
0.150621
1.13798e-15
0.150621
-2.22045e-16
0.150621
-1.69309e-15
0.150621
7.49401e-16
0.150621
-2.94209e-15
0.150621
-2.77556e-16
0.150621
-3.33067e-16
0.150621
2.96985e-15
0.150621
2.2482e-15
0.150621
-5.55112e-17
0.150621
-1.33227e-15
0.150621
-9.79772e-15
0.150621
-3.52496e-15
0.150621
-6.10623e-15
0.150621
-7.66054e-15
0.150621
-8.63198e-15
0.150621
-3.83027e-15
0.150621
-1.69309e-15
0.150621
8.32667e-16
0.150621
-1.44329e-15
0.150621
-6.93889e-15
0.150621
-1.4988e-15
0.150621
5.30131e-15
0.150621
2.13718e-15
0.150621
-8.32667e-17
0.150621
-8.57647e-15
0.150621
-8.607e-14
0.150621
-6.58612e-13
0.150621
-4.2592e-12
0.150621
-2.3021e-11
0.150621
-1.05695e-10
0.150621
-4.17417e-10
0.150621
-1.44971e-09
0.150621
-4.55832e-09
0.150621
-1.32153e-08
0.150621
-3.55208e-08
0.150621
-8.97112e-08
0.150621
-2.12873e-07
0.150621
-5.35549e-07
0.150622
-3.81554e-07
1.2595e-07
0.150621
-2.28432e-15
0.150621
-4.34611e-15
0.150621
-4.7249e-15
0.150621
-1.90107e-15
0.150621
-2.08514e-15
0.150621
2.6125e-15
0.150621
3.00108e-15
0.150621
1.86308e-15
0.150621
2.25172e-15
0.150621
-7.4593e-16
0.150621
-1.08598e-15
0.150621
1.83878e-16
0.150621
-1.51965e-15
0.150621
-1.14144e-15
0.150621
-2.32455e-16
0.150621
2.09901e-15
0.150621
2.28984e-15
0.150621
2.42514e-15
0.150621
1.0391e-15
0.150621
-8.32637e-16
0.150621
-5.60143e-15
0.150621
-6.12526e-15
0.150621
-6.5364e-15
0.150621
-9.04836e-15
0.150621
-8.09248e-15
0.150621
-3.32381e-15
0.150621
-6.0898e-16
0.150621
-3.18333e-15
0.150621
-2.2361e-15
0.150621
-2.8187e-15
0.150621
2.09192e-15
0.150621
4.62805e-15
0.150621
-1.16745e-15
0.150621
1.50803e-15
0.150621
-1.69958e-16
0.150621
-5.46337e-15
0.150621
-8.13387e-14
0.150621
-7.28052e-13
0.150621
-5.15024e-12
0.150621
-3.07846e-11
0.150621
-1.5654e-10
0.150621
-6.80732e-10
0.150621
-2.56576e-09
0.150621
-8.52693e-09
0.150621
-2.52851e-08
0.150621
-6.82875e-08
0.150621
-1.73305e-07
0.150621
-5.87891e-07
0.150622
-4.23898e-07
6.23742e-07
0.029037
-0.0354675
0.00229385
-0.0126483
0.0468588
-0.0311366
0.0133588
-0.0734776
0.0347369
-0.11955
0.0387688
-0.25726
0.109382
-0.355629
0.105667
-0.428035
0.0734418
-0.537321
0.0131434
-0.490736
0.0450099
-0.352819
0.0566825
-0.352006
0.0500309
-0.350602
-0.0260961
-0.190219
-0.198525
-0.134372
-0.00361566
0.130579
-0.17827
0.00613407
-0.00879183
0.175229
-0.0242957
0.0252012
-0.0536634
0.0589099
-0.038089
0.0174106
-0.160674
0.176126
-0.260415
0.220454
-0.346723
0.154409
-0.459075
0.0647513
-0.44743
0.135687
-0.386413
0.100585
-0.367579
0.104997
-0.365452
-0.042124
-0.132539
-0.417199
-0.206193
-0.000169392
-0.00246982
-0.226065
0.0465921
-0.0312441
0.198166
-0.0427515
0.0404331
-0.031001
0.0215598
-0.112264
0.0971847
-0.172391
0.195732
-0.262435
0.312373
-0.267974
0.164305
-0.381249
0.164854
-0.435368
0.234869
-0.367865
0.0934881
-0.32541
0.0824632
-0.273643
-0.0882246
-0.109875
-0.600735
-0.284167
-0.00186496
-0.00513239
-0.383781
0.237963
-0.0946564
0.286946
-0.051552
-0.0103505
-0.071101
0.0090545
-0.154522
0.169388
-0.195425
0.212381
-0.233573
0.33673
-0.261002
0.187941
-0.402204
0.272675
-0.404478
0.237282
-0.35996
0.124382
-0.345016
0.0477543
-0.299097
-0.203164
0.00779677
-0.989432
-0.310565
-0.00469489
-0.00703118
-0.00300421
-0.413697
-0.0986651
0.360616
-0.0408267
-0.0628742
-0.105327
0.0237233
-0.19027
0.250793
-0.212764
0.223705
-0.244694
0.345401
-0.270578
0.193115
-0.413847
0.356455
-0.568972
0.349061
-1.09123
0.70735
-0.969697
-0.127541
-0.906177
-0.350146
-0.831901
-1.0842
-0.00615589
-1.13544
0.240749
-0.0808409
0.376568
-0.0216372
0.531999
-0.00877174
0.416828
-0.0445688
0.407136
0.0214393
0.403333
0.0599612
0.466276
0.0277212
0.360448
0.111754
0.250587
0.103452
0.111683
0.110021
0.0743995
0.0312265
0.0224907
0.0468858
0.00675195
0.00906134
-0.0112485
0.0223111
-0.0153574
0.191239
-0.196589
0.339018
-0.149617
0.519608
-0.137655
0.402744
0.0266572
0.36814
0.116213
0.352319
0.11391
0.352595
0.0787426
0.261227
0.191986
0.163363
0.20376
0.0331389
0.19028
0.0464133
0.0118768
0.0240081
0.0671646
0.00760116
0.0188557
-0.0177492
0.0486054
-0.0431086
0.128278
-0.307922
0.203381
-0.236803
0.334231
-0.277513
0.327004
0.0471292
0.365522
0.17881
0.353753
0.13492
0.28165
0.162846
0.268939
0.196941
0.177648
0.296926
0.119777
0.206172
0.0381101
0.0854726
0.0249156
0.0739616
0.0204474
0.0180553
-0.0410657
0.105546
-0.129953
0.0478378
-0.309088
0.229577
-0.417267
0.350724
-0.413269
0.351179
0.0126404
0.394696
0.149662
0.391458
0.132872
0.267662
0.278091
0.242541
0.205934
0.195216
0.319692
0.164596
0.212939
0.0780228
0.153445
0.0635175
0.0963007
0.0739689
-0.0352332
-0.041819
0.211929
-0.070084
0.834305
-0.965581
0.909609
-0.415194
1.05241
-0.476017
1.18944
-0.128214
0.73727
0.578998
0.424102
0.45254
0.268731
0.39396
0.246756
0.221527
0.209991
0.340375
0.200668
0.213738
0.106031
0.235817
0.0697176
0.12127
0.0976504
-0.0778284
-0.0256632
0.285804
-0.115008
-0.150622
3.39706e-06
-0.150621
1.73178e-07
-0.150621
-4.50683e-07
-0.150621
-3.3039e-07
-0.150621
-1.40269e-07
-0.150621
-5.60598e-08
-0.150621
-2.07841e-08
-0.150621
-7.04765e-09
-0.150621
-2.1397e-09
-0.150621
-5.67764e-10
-0.150621
-1.29295e-10
-0.150621
-2.50538e-11
-0.150621
-4.13497e-12
-0.150621
-5.80203e-13
-0.150621
-7.1998e-14
-0.150621
-6.32827e-15
-0.150621
-2.66454e-15
-0.150621
3.08087e-15
-0.150621
1.55431e-15
-0.150621
1.13798e-15
-0.150621
2.30371e-15
-0.150621
3.13638e-15
-0.150621
-1.91513e-15
-0.150621
-4.63518e-15
-0.150621
-5.02376e-15
-0.150621
-1.60982e-15
-0.150621
7.21645e-16
-0.150621
-1.58207e-15
-0.150621
-2.52576e-15
-0.150621
-1.80411e-15
-0.150621
-1.60982e-15
-0.150621
-1.9984e-15
-0.150621
-6.10623e-16
-0.150621
1.91513e-15
-0.150621
4.996e-16
-0.150621
9.99201e-16
-0.150621
1.19349e-15
-0.150621
1.30451e-15
-0.150621
2.30371e-15
-0.150621
6.16174e-15
-0.150621
-1.05471e-15
-0.150621
-2.44249e-15
-0.150621
-9.15934e-16
-0.150621
-3.19189e-15
-0.150621
-3.10862e-15
-0.150621
-1.08247e-15
-0.150621
-5.55112e-16
-0.150621
-6.27276e-15
-0.150621
-6.32827e-15
-4.05231e-15
-0.150622
2.8641e-06
-0.150621
-2.86572e-08
-0.150621
-4.5975e-07
-0.150621
-2.86385e-07
-0.150621
-1.22533e-07
-0.150621
-4.91177e-08
-0.150621
-1.83677e-08
-0.150621
-6.29281e-09
-0.150621
-1.9384e-09
-0.150621
-5.2275e-10
-0.150621
-1.21124e-10
-0.150621
-2.38876e-11
-0.150621
-4.01015e-12
-0.150621
-5.73597e-13
-0.150621
-7.44682e-14
-0.150621
-1.17684e-14
-0.150621
-2.80331e-15
-0.150621
5.9952e-15
-0.150621
3.33067e-15
-0.150621
3.2474e-15
-0.150621
5.10703e-15
-0.150621
1.69309e-15
-0.150621
4.71845e-16
-0.150621
-4.38538e-15
-0.150621
-1.63758e-15
-0.150621
1.4988e-15
-0.150621
3.02536e-15
-0.150621
-4.996e-15
-0.150621
-3.4972e-15
-0.150621
2.77556e-17
-0.150621
-7.77156e-16
-0.150621
2.85882e-15
-0.150621
-2.22045e-16
-0.150621
1.27676e-15
-0.150621
6.10623e-16
-0.150621
-3.08087e-15
-0.150621
-8.88178e-16
-0.150621
3.4972e-15
-0.150621
2.44249e-15
-0.150621
1.7486e-15
-0.150621
-1.41553e-15
-0.150621
-1.16573e-15
-0.150621
-1.16573e-15
-0.150621
-4.52416e-15
-0.150621
-2.27596e-15
-0.150621
-1.55431e-15
-0.150621
-6.93889e-16
-0.150621
-6.05072e-15
-0.150621
-5.32907e-15
-8.65974e-15
-0.150622
1.92703e-06
-0.150621
-1.54002e-07
-0.150621
-4.43988e-07
-0.150621
-2.37849e-07
-0.150621
-1.03874e-07
-0.150621
-4.17158e-08
-0.150621
-1.56597e-08
-0.150621
-5.41472e-09
-0.150621
-1.69715e-09
-0.150621
-4.70776e-10
-0.150621
-1.12903e-10
-0.150621
-2.31114e-11
-0.150621
-4.02856e-12
-0.150621
-5.97494e-13
-0.150621
-7.9825e-14
-0.150621
-1.1241e-14
-0.150621
6.93889e-16
-0.150621
4.52416e-15
-0.150621
4.71845e-15
-0.150621
9.9365e-15
-0.150621
6.46705e-15
-0.150621
5.55112e-17
-0.150621
2.16493e-15
-0.150621
-3.46945e-15
-0.150621
-4.41314e-15
-0.150621
1.30451e-15
-0.150621
1.41553e-15
-0.150621
-1.16573e-15
-0.150621
-3.05311e-15
-0.150621
1.60982e-15
-0.150621
2.77556e-17
-0.150621
2.44249e-15
-0.150621
-5.55112e-16
-0.150621
-1.66533e-15
-0.150621
2.02616e-15
-0.150621
-1.83187e-15
-0.150621
-5.82867e-16
-0.150621
3.71925e-15
-0.150621
3.33067e-16
-0.150621
3.60822e-16
-0.150621
-2.77556e-16
-0.150621
9.15934e-16
-0.150621
-3.83027e-15
-0.150621
-5.35683e-15
-0.150621
6.10623e-16
-0.150621
-2.91434e-15
-0.150621
-2.91434e-15
-0.150621
-6.35603e-15
-0.150621
-2.02616e-15
-6.02296e-15
-0.150622
1.27246e-06
-0.150621
-6.88372e-08
-0.150621
-3.85291e-07
-0.150621
-1.8647e-07
-0.150621
-8.48156e-08
-0.150621
-3.40336e-08
-0.150621
-1.27562e-08
-0.150621
-4.42994e-09
-0.150621
-1.41605e-09
-0.150621
-4.08836e-10
-0.150621
-1.03636e-10
-0.150621
-2.25795e-11
-0.150621
-4.1904e-12
-0.150621
-6.55753e-13
-0.150621
-9.16489e-14
-0.150621
-1.249e-14
-0.150621
8.32667e-17
-0.150621
3.46945e-15
-0.150621
1.08247e-15
-0.150621
2.13718e-15
-0.150621
4.91274e-15
-0.150621
-1.11022e-15
-0.150621
-2.96985e-15
-0.150621
3.88578e-16
-0.150621
-2.27596e-15
-0.150621
1.9984e-15
-0.150621
9.99201e-16
-0.150621
2.52576e-15
-0.150621
-2.30371e-15
-0.150621
-1.55431e-15
-0.150621
5.82867e-16
-0.150621
2.72005e-15
-0.150621
7.49401e-16
-0.150621
-1.33227e-15
-0.150621
5.27356e-16
-0.150621
-4.05231e-15
-0.150621
3.05311e-16
-0.150621
3.52496e-15
-0.150621
1.08247e-15
-0.150621
-4.71845e-16
-0.150621
-5.27356e-16
-0.150621
-9.99201e-16
-0.150621
-3.63598e-15
-0.150621
-4.10783e-15
-0.150621
-3.2474e-15
-0.150621
-6.60583e-15
-0.150621
-6.245e-15
-0.150621
-6.66134e-15
-0.150621
-2.72005e-15
-2.85882e-15
-0.150622
1.54549e-06
-0.150621
-2.38481e-07
-0.150621
-4.53388e-07
-0.150621
-1.58212e-07
-0.150621
-6.48563e-08
-0.150621
-2.44689e-08
-0.150621
-8.33026e-09
-0.150621
-2.51837e-09
-0.150621
-6.69387e-10
-0.150621
-1.53884e-10
-0.150621
-3.02391e-11
-0.150621
-5.04923e-12
-0.150621
-7.20611e-13
-0.150621
-8.93969e-14
-0.150621
-1.15091e-14
-0.150621
-1.16111e-16
-0.150621
1.22717e-15
-0.150621
3.03752e-15
-0.150621
5.76279e-15
-0.150621
3.62044e-15
-0.150621
2.55511e-15
-0.150621
9.19248e-17
-0.150621
-3.01845e-15
-0.150621
-3.59955e-15
-0.150621
-3.90834e-15
-0.150621
-3.76449e-16
-0.150621
1.07551e-15
-0.150621
4.10778e-15
-0.150621
-1.56084e-16
-0.150621
-2.34708e-15
-0.150621
1.31146e-15
-0.150621
3.1054e-16
-0.150621
-1.15013e-15
-0.150621
-2.7582e-15
-0.150621
2.3731e-15
-0.150621
-1.5196e-15
-0.150621
-5.90322e-17
-0.150621
2.94207e-15
-0.150621
-4.50625e-17
-0.150621
-9.54085e-16
-0.150621
-1.74168e-15
-0.150621
3.0536e-16
-0.150621
-3.87194e-15
-0.150621
-3.05314e-15
-0.150621
-3.71563e-15
-0.150621
-6.23844e-15
-0.150621
-2.94576e-15
-0.150621
-6.75481e-15
-0.150621
-1.45777e-15
-3.07552e-15
7.45574
-1.56472e-15
2.5894
4.86634
4.06428
3.39146
4.04997
3.40577
3.91886
3.53688
7.45574
-6.35726
6.35726
6.39537
-6.39537
-6.50148
6.50148
-6.58921
6.58921
6.53891
-6.53891
6.51654
-6.51654
6.50645
-6.50645
6.5301
-6.5301
6.67243
-6.67243
6.74255
-6.74255
6.73524
-6.73524
6.7262
-6.7262
6.71679
-6.71679
6.71046
-6.71046
6.70926
-6.70926
6.71197
-6.71197
6.71943
-6.71943
6.72515
-6.72515
6.71754
-6.71754
6.70519
-6.70519
6.69427
-6.69427
6.63561
-6.63561
6.4654
-6.4654
6.61361
-6.61361
-7.45574
-2.52199
-4.93376
-4.08577
-3.36999
-3.96451
-3.49125
-4.13531
-3.32045
-7.45575
1.76513e-08
6.66983
-6.66983
1.55203e-08
6.79068
-6.79068
-8.85046e-11
-6.64684
6.64684
1.6814e-13
-6.69619
6.69619
5.26376e-15
-6.70645
6.70645
5.40706e-15
-6.70564
6.70564
1.38911e-17
-6.69664
6.69664
6.70642e-15
-6.69532
6.69532
-8.08405e-16
-6.70649
6.70649
2.59688e-15
-6.71027
6.71027
3.57354e-15
-6.70933
6.70933
-6.45318e-16
-6.70327
6.70327
-3.46948e-16
-6.70437
6.70437
-4.98047e-15
-6.70455
6.70455
-4.96844e-15
-6.65282
6.65282
-2.29248e-16
-6.37664
6.37664
-3.35197e-15
-5.55383
5.55383
-9.66639e-16
-4.43878
4.43878
3.42071e-14
-3.33405
3.33405
9.93065e-10
-2.56661
2.56692
-1.18902e-05
-1.76084
1.80394
0.0190816
-0.203961
0.136203
0.0376699
-0.330529
0.477114
-0.226733
-0.407335
-0.104978
-0.92757
2.0678
1.26582
-3.33362
0.316763
-0.368602
-0.696762
0.613085
1.42911
-1.13531
1.73532
-1.4974
2.48795
-2.31449
3.54634
-3.57508
3.75411
-3.53564
3.25907
-2.98397
2.34154
-1.54053
1.15859
-1.46866
0.49702
-0.792733
-1.30987
0.139919
-1.26553
0.0876755
1.17967
-1.18082
0.000166265
-1.44763
1.44758
1.42022e-06
-1.81253
1.81253
-8.18386e-09
2.28517
-2.28517
-1.42451e-11
2.80432
-2.80432
-1.32175e-14
-3.55054
3.55054
-1.9881e-15
-4.50692
4.50692
1.06369e-15
-5.72963
5.72963
-6.43235e-15
-6.53303
6.53303
-3.11039e-15
1.09848
-9.97773
-0.785902
0.0993473
-4.11511
6.70451
3.34062
7.4049
4.06631
3.38942
7.45777
7.43939
3.40908
4.04666
3.07862
4.37712
6.64291
-6.64291
6.38768
-6.38768
6.57634
-6.57634
-6.56587
6.56587
-6.52339
6.52339
-6.5139
6.5139
-6.50329
6.50329
-6.59554
6.59554
-6.72297
6.72297
-6.74563
6.74563
-6.73434
6.73434
-6.72221
6.72221
-6.71845
6.71845
-6.71287
6.71287
-6.71174
6.71174
-6.72131
6.72131
-6.72169
6.72169
-6.71732
6.71732
-6.71265
6.71265
-6.70677
6.70677
-6.67597
6.67597
-6.55698
6.55698
-6.4767
6.4767
-0.0128781
-6.19075
6.19074
-4.46275
-2.993
-3.51308
-3.94267
-3.45344
-4.00231
-0.113794
-2.50716
-4.94857
-7.02461
0.35478
-7.02461
-3.58494e-09
-1.09778
-0.233937
6.66492
-6.66492
-1.84973e-11
6.67748
-6.67748
9.3445e-16
6.70697
-6.70697
5.89815e-15
6.70945
-6.70945
1.79198e-15
6.69814
-6.69814
4.61783e-15
6.69541
-6.69541
2.61425e-15
6.69771
-6.69771
2.0192e-15
6.7074
-6.7074
-4.97817e-16
6.70485
-6.70485
3.48159e-15
6.70353
-6.70353
-1.65321e-15
6.69721
-6.69721
-2.15115e-15
6.70108
-6.70108
-2.09727e-15
6.69077
-6.69077
-3.54691e-15
6.55285
-6.55285
-1.62937e-15
6.04681
-6.04681
-2.11828e-17
5.02082
-5.02082
-8.56779e-16
3.89321
-3.89321
1.04421e-11
2.94757
-2.94755
-1.16514e-08
2.19516
-2.19024
0.00140903
1.32046
-0.684909
0.0231322
0.449843
-0.701787
0.164251
0.627134
0.353323
0.213741
1.12265
0.234628
0.682544
0.889757
1.04844
-0.0156512
-0.381085
-0.697477
-0.836028
-0.948778
-1.01535
1.28434
-1.28591
2.82185e-05
1.62591
-1.62591
-4.91733e-08
-2.03818
2.03818
-4.06303e-10
0.246988
-2.59944
2.59944
-6.51806e-13
0.204882
3.07029
-3.07029
-1.25015e-15
3.99718
-3.99718
1.58158e-15
5.08862
-5.08862
-4.151e-15
6.40825
-6.40825
-4.82789e-15
0.922704
7.32793
7.45242
6.6155
0.00768167
-0.0748586
0.0233462
0.015514
0.00263587
0.00316304
-0.0654448
-0.0505333
-0.00308773
0.000903726
0.00399146
-0.00165683
-0.00240994
-0.00248525
-0.0093385
-0.00225931
0.00783229
0.00489518
-0.00158152
0.0183004
0.0786241
-0.0112966
0.422869
-7.59883
-7.41793
-6.64246
-0.125761
0.0306363
0.0107845
0.00299736
-0.00749339
-0.00122756
0.00238734
0.000911257
-0.00541482
-0.00579891
-0.00606249
-0.00329107
-0.0137818
-0.0999747
-0.32983
-0.53301
-0.545572
-0.386486
-0.36989
-0.29876
-0.650255
-0.596308
2.66411
0.10565
0.178287
0.225645
0.314271
0.265966
0.446636
0.581706
0.678623
0.00685325
0.00745574
-0.0268105
-0.076892
-0.0195807
0.0103928
0.00813353
0.00542235
0.00798291
0.0036149
-0.000225931
0.00188276
-0.00346428
-0.000225931
0.00745574
0.0125015
0.0403664
0.0915775
-0.136914
-7.83274
-7.4339
-7.32274
-0.00381071
-0.00150621
-9.03726e-05
0.0087812
0.00286933
0.00447344
-0.000256056
0.00716203
0.00347181
-0.0379489
-0.176204
-0.492982
-0.582037
-0.559158
-0.38057
-0.366304
-0.136957
-0.50106
0.247546
0.0269611
-0.285653
-7.92673
-0.000519642
0.0187071
-0.0180745
0.124782
0.641005
0.509739
0.18662
0.161559
0.480255
3.70844
3.69646
4.53098
2.08452
5.4756
3.86599
3.58644
6.22449
-6.2168
-4.16595
-3.76078
-3.78698
-6.53401
6.56097
6.56647
-6.64133
6.552
-6.67776
6.60141
-6.57807
0.0674029
-4.24373
-3.35508
-6.51609
6.51872
6.49267
-6.4895
6.50163
-6.56707
-6.75987
6.70933
6.74473
-6.74782
6.73215
-6.73125
-6.72123
6.72523
6.7195
-6.72116
6.71114
-6.71355
6.71528
-6.71777
6.71604
-6.72538
6.72869
-6.73095
-6.72937
6.7372
-6.71604
6.72093
6.70783
-6.70941
6.71543
-6.69713
-6.60684
6.68546
-6.35379
6.3425
-4.34111
-3.49162
-8.50707
-7.73537
-6.63335
6.62047
-0.0668757
0.0423998
6.71787
-6.71839
-5.73448
-3.73035
-3.68757
-2.14484
-4.49762
6.71163
-6.71544
-6.52038
6.40659
-0.295895
-0.234743
-1.27018
0.174341
-7.6355
7.76028
-6.70861
6.7194
0.00926319
-6.71449
6.71749
-0.0028618
-6.70471
6.72342
0.0146855
-6.70689
6.70539
6.70488
-6.70497
-6.70345
6.71223
-6.71774
6.72061
-6.70723
6.71171
-6.71156
6.7113
-6.6969
6.70406
-6.70259
6.70607
-6.71223
6.67428
-6.60907
6.43286
5.43321
-5.9262
-4.98512
4.40308
3.72226
-4.28142
2.90832
-3.28883
-2.35683
2.0101
1.53623
-1.68354
-1.37444
0.721414
0.128954
6.40342
-6.15588
0.186619
1.46248
-0.980283
-0.709263
1.02215
-1.15967
1.21351
-0.835191
0.600266
0.848075
2.49324
-2.24626
1.73892
-1.56063
3.75158
-3.27132
-2.0109
2.23654
0.482349
-1.34505
1.5066
0.393835
-3.09661
3.36257
0.654968
-2.84701
3.0519
0.51556
5.30295
-4.72124
-1.78658
1.9732
0.449958
6.65397
-5.97535
-4.20914
4.71888
1.09381
6.51985
-6.513
0.00376552
-5.26834
5.90934
1.38564
5.78904
1.91045
-1.05668
-1.00493
1.96013
1.85728
-0.912121
1.13685
-1.11952
0.875254
-1.23791
0.59584
-1.21102
-1.22883
0.267451
0.205875
-1.21745
-1.02425
-1.03694
-6.90077
6.66683
-0.348763
3.60037
3.72757
7.46636
8.25855
-6.6698
6.70043
0.0536211
7.56012
-7.54777
-7.87932
0.804049
-0.576402
0.226946
0.407344
-1.84646
6.7308
0.00135559
6.73893
3.68735
3.75204
7.27379
0.346158
-7.52454
6.73976
0.00497049
6.75015
6.51044
0.0505333
6.52595
-0.857711
-0.000903726
1.1881
7.27446
-6.50795
6.51541
-6.49349
6.46668
-6.68117
6.60428
6.7488
-6.76838
0.0189029
0.017698
-6.72681
6.73223
-6.71905
6.72703
-6.71408
6.71769
-6.71122
6.71099
-6.72809
6.72997
6.72289
-6.72635
6.71913
-6.71935
-6.71476
6.72221
-6.71024
6.72274
6.70956
-6.66919
6.57543
-6.48386
6.37345
-6.51036
-7.1249
-1.01133
-0.17954
3.67138
-7.40174
-3.65135
-3.9669
-3.46699
-8.14897
-7.32199
0.0107694
-7.15457
-0.000828415
1.78493
6.59025
-6.60833
-6.69575
-0.0111459
-6.69698
6.71047
-6.71797
0.0079076
-0.00497049
6.70482
-6.70244
6.71595
-6.71504
6.71571
-6.72112
6.71529
-6.72109
6.70508
-6.71114
6.71031
-6.7136
6.70177
-6.71555
6.60393
-6.7039
6.33973
-0.906512
6.0099
4.8906
-5.42361
-4.51836
3.97279
-3.76758
3.38109
-2.84738
2.47891
-0.778932
0.430974
-0.307261
0.00308773
-0.0064767
0.775318
4.85805
1.11859
0.412567
-0.0875108
0.0129534
3.8934
3.56437
7.60184
7.31641
2.52515
0.526752
-0.00158152
2.83942
-3.74248
4.18911
8.55452
0.9764
0.975891
1.00393
0.330678
-0.218992
-0.641344
1.25656
-1.00313
0.484249
-0.751448
-0.833133
-0.859248
-0.796107
0.221639
-0.834626
0.917794
0.59316
-0.455357
-0.809682
-0.900322
-1.01232
-1.03559
-0.59917
-0.108296
-0.000828415
0.0134053
-0.0064767
0.00805822
0.102723
-0.00203338
0.0125015
-0.000150621
-0.167867
0.201606
0.0462406
-0.00240994
0.00617546
0.0178486
0.00233462
-0.0120497
0.00406677
-0.00293711
0.000451863
-0.000979036
0.0256056
-0.0143843
0.0128028
-7.53105e-05
0.000979036
-0.155591
-0.100389
0.0259068
-0.0590434
0.0134806
0.0110706
-0.271042
-0.0412701
-0.00753105
-0.00707918
-0.00979036
-0.00941381
0.0921047
-0.0125768
0.00557297
0.00979036
-1.02053
-0.285527
6.72974
-6.74232
6.78608
-6.73245
-6.7494
6.7671
-6.7381
6.75158
-6.50728
6.51805
-6.84519
6.78615
-5.56318
7.34812
2.99133
-4.22492
-3.17682
-6.47331
6.37292
6.69759
-6.85318
-0.147609
-6.75414
6.77305
-6.49312
6.54365
3.0122
-2.41904
6.58131
-6.85235
-6.75362
6.75264
-6.74955
6.76062
6.75746
-6.75701
0.0193548
-6.73261
6.74541
-6.73554
6.73961
-6.7384
6.76401
6.75068
-6.76273
-0.00293711
-1.13516
1.92464
6.75475
-6.76122
6.74684
-6.74691
0.0112966
6.75189
-6.74571
0.0192795
6.73908
-6.75347
-0.0236475
6.74232
-6.74473
0.00391614
6.74383
-6.74586
0.704125
-1.54759
-6.58733
6.78894
2.03124
-2.86032
-6.0814
5.91353
-3.21245
-4.10954
1.46441
-0.876886
6.43784
-6.43867
-0.0354712
-2.00145
-6.14752
-6.22637
-7.00523
6.76514
-6.76378
0.0157399
6.77192
-6.76695
0.0177733
-6.74398
6.73901
-0.0142337
-3.89062
-3.26396
-7.10306
-6.44078
6.60428
-6.53687
0.111158
-6.74827
6.75384
-0.00444332
-6.74887
6.74601
-0.00986567
-6.72199
6.72989
4.36387
-5.3844
-6.74066
6.75045
-6.73374
6.74624
0.0201079
-6.67605
6.76815
0.110029
6.80167
-6.69894
0.214334
-6.73547
6.74353
6.7378
-6.74428
-6.72394
6.73735
-6.73615
6.73532
-6.96614
6.36697
-6.78246
6.67416
-0.201154
0.235871
-1.12936
-6.1799
5.14431
-1.81604
6.58176
-6.36012
0.500363
3.89129
-4.90362
3.53861
-4.33472
-3.63841
2.77917
6.74993
-6.74684
0.00421739
-5.70198
5.8886
-6.75158
6.75068
-0.00557297
-4.92463
6.11273
0.690709
6.75196
-6.75354
0.00240994
-5.41776
6.53635
2.84079
0.834365
1.80382
-1.41
3.8207
-3.16574
2.26675
-1.1631
-3.06316
3.57872
0.757548
-2.77802
3.30477
0.800701
-6.48762
6.40011
0.280532
6.53898
-6.53522
0.0317057
6.70866
-5.32302
1.78403
2.0251
1.5027
-1.15668
0.464618
0.647089
4.93073
-3.95433
-1.34128
1.64073
2.31191
-1.17536
0.432853
-1.43495
4.31324
-3.39545
1.14751
1.53528
-6.81688
5.91037
-1.67257
6.46623
-6.815
-0.538997
-0.414885
-6.66385
5.9124
-0.750318
-2.59467
1.0051
-1.66415
1.26676
-1.50012
-0.0972742
-0.506326
5.55791
-4.4641
1.60359
1.64862
2.06217
-1.61222
2.3889
-1.90655
6.49726
-6.6768
-0.355917
2.39779
-3.20728
-1.24059
-1.17539
-6.74835
6.75761
0.00233462
-0.785845
1.19404
-0.420656
3.58621
3.68758
-0.967146
0.428818
-0.0138571
4.47736
3.12448
-1.11462
6.75678
-0.00203338
6.77463
3.21531
4.25105
6.80151
7.09184
0.00926319
-6.49877
6.52467
0.0192795
0.0036149
-0.303878
0.000677794
-6.80453
6.80551
6.74624
-6.74917
-1.05578
1.5496
0.512571
-0.0183758
0.940537
-6.7668
6.76913
-0.000677794
-6.725
6.77124
-1.49311
-0.485376
6.69103
-6.75791
0.0135559
0.0860046
0.00557297
6.47587
0.0677794
6.48883
-6.73313
0.0111459
-6.73328
6.73532
-6.74646
6.77719
-6.7625
0.00240994
0.0171708
-0.00700387
-6.74322
0.00775698
-6.75301
6.74804
-6.75746
-0.0152127
0.002184
6.73547
-6.74255
6.73705
-6.74458
-6.75874
6.71747
-0.0845737
-1.11877
0.0447344
-1.365
3.9458
-1.16663
3.04548
0.0277896
-2.38095
1.65763
6.50389
-0.615287
6.20799
-0.938582
-1.01316
2.06972
1.07647
-6.61279
6.65519
0.0782476
0.118313
1.53568
-1.13564
0.587206
0.987533
1.20544
1.96217
0.552163
0.261098
-0.0141584
0.233103
-1.25857
-1.20285
-0.79489
0.776684
6.55969
-6.79444
-0.198217
-4.71444
-3.02093
-7.30911
-7.13047
-1.28924
-0.018677
0.013104
-0.00881133
-1.19149
0.0390108
0.038559
0.0079076
0.0722981
-0.00489518
-0.0463913
-0.0165683
-0.0139324
-0.00926319
-0.00519642
-1.8077
0.838557
6.81748
-6.82238
-6.78721
6.82622
-6.81432
6.82223
-6.78404
6.79534
-6.81424
6.81131
6.7909
-6.80483
-6.82102
6.85958
6.80347
-6.7979
7.46869
2.31725
-1.54057
-6.79331
6.80905
-6.49598
6.51526
-7.49738
1.27101
-8.03638
-6.79745
6.8168
6.7796
-6.79617
6.81319
-6.80392
0.019882
-6.51149
6.20762
-6.77169
6.78886
0.031781
6.45712
-7.5129
-1.79876
2.31133
0.51849
6.86756
-6.88594
0.0465419
6.80061
-6.80129
0.0165683
-6.78472
6.804
6.7851
-6.80874
-0.0291452
6.80061
-6.79669
0.0134053
-2.63913
1.45957
-6.55804
6.98685
-5.31903
3.82592
6.7805
-6.78977
-6.42323
6.37684
3.43981
-4.72905
-6.78239
6.77538
-0.00278649
6.87472
-7.02232
-0.0112213
6.79391
-6.79323
-0.00278649
6.81643
-6.79865
0.0125015
-6.80272
6.78849
-0.0273377
6.61964
-7.10502
6.80242
-6.80686
-1.21609
2.27289
-6.8037
6.79383
-0.0152127
3.49908
-4.86408
-1.81995
-1.42427
6.79941
-6.797
-0.00188276
6.80069
-6.79707
0.00323835
6.7857
-6.79956
-0.023045
0.722299
-2.18023
-6.79835
6.80054
-0.00745574
6.47181
-6.40403
0.0485753
6.91516
-6.80513
6.97044
-6.7561
0.4124
6.78992
-6.80513
6.786
-6.7912
-6.78118
6.79428
-0.000677794
6.74978
-6.83435
-6.80182
6.82961
-6.79978
6.78111
-0.0500062
2.04451
-1.05817
-6.79052
6.79828
-0.000602484
-6.80212
6.84685
0.0153633
4.04711
3.2693
7.17159
6.95688
6.8159
-6.81349
0.0188276
3.79136
-2.99065
-6.70941
6.98994
0.205748
6.49252
-6.46081
-0.00346428
-6.77854
6.78969
0.0103175
6.81409
-6.81612
0.0122756
1.65677
-1.4441
6.69405
-7.04996
-0.328278
6.8031
-6.81725
-0.0112213
-6.80792
6.80234
-0.0140831
6.79918
-6.79496
0.0144596
-6.80603
6.80837
-0.00369021
0.919122
-1.24541
-6.35161
4.53557
6.70406
-6.90522
-0.130287
-0.285577
-1.50092
2.05308
0.810411
-6.78894
6.80905
0.0134806
6.22283
-6.2583
-0.288665
6.58884
-6.47768
0.184812
0.806545
-0.0140077
-4.81189
6.59592
1.6743
-3.21487
0.0609262
-1.76863
1.03303
2.75832
-0.647896
0.0107694
-0.0064767
-5.16976
0.0198067
-3.67363
2.43305
-0.00594953
-2.52569
-0.0404884
-1.16257
-6.69985
6.77809
-0.842348
0.00610015
0.0111459
-5.64603
-1.86687
-7.3186
6.86206
-6.78977
-0.00655201
3.57815
3.22336
-0.961031
1.53483
2.10922
-3.64405
0.041722
1.0779
-0.0839712
-4.13289
5.73647
0.742426
1.31063
1.10565
-6.80588
6.81944
0.0346428
-0.00421739
0.539356
-1.65403
1.38197
1.12768
-1.26401
-6.50155
6.58756
-0.00632608
0.105962
-6.78216
-0.0229697
-6.79097
0.0364503
-0.00497049
-1.26847
1.71798
-0.880666
0.00308773
0.574989
1.20941
6.60751
-6.10715
3.0329
-4.19954
-0.0086607
-0.586443
5.77654
-6.39183
-3.82283
-3.28022
2.61172
6.62205
-6.50374
0.14437
2.88206
4.07482
6.46021
-3.94853
0.957874
-3.19098
-5.46212
4.7118
1.1454
-2.59731
0.0137065
6.96057
-4.93547
2.14868
2.53322
6.24557
-4.59695
2.11268
1.99897
0.879702
-1.5707
0.111418
5.64173
-6.05662
-2.39465
0.933323
6.86161
-7.05983
0.161767
-1.67574
1.94246
-3.11729
-1.73111
-1.65587
-3.42821
4.96349
2.30827
-2.78302
-3.66182
-3.46865
-6.25913
-7.29148
0.00316304
-1.69614
0.00594953
-1.69467
0.329257
-1.76648
-3.82344
0.632457
-2.67593
4.45296
2.71863
6.98618
6.79346
-0.898454
2.57276
-6.83322
6.89415
4.33766
-3.30462
6.7665
-7.41439
-6.8778
6.87185
0.274356
-7.37568
7.0474
-6.85724
6.87607
-0.468806
-2.31131
0.616535
-1.56889
6.57747
-7.41981
-0.798216
6.84459
-6.86756
6.92329
-6.87675
0.0900713
-6.85122
6.86779
-6.85521
6.85461
-0.0106188
-2.62105
0.905375
-6.85868
6.85212
-0.00406677
6.83465
-6.84113
-2.06192
0.641548
4.50183
-2.96701
3.60338
1.37065
-6.84745
6.86086
6.91561
-6.87389
0.885726
-6.51594
6.84519
1.95764
6.82825
-6.87826
-4.64289
2.94675
-6.85077
6.88541
-1.26877
2.07839
3.4929
-6.01859
-6.84738
6.86726
-7.00651
6.99529
0.0408936
0.118539
6.84888
-6.85167
0.0014309
6.86041
-6.84791
0.0130287
6.86184
-6.87585
6.83638
-6.86372
6.85446
-6.84369
0.00278649
-6.85295
6.87276
2.30789
-4.07437
0.387397
-1.51339
-1.22893
-0.817601
6.87118
-6.86003
-6.86252
6.85506
-0.0103928
6.85898
-6.85574
0.00602484
6.83608
-6.85913
6.84218
-6.84286
-6.87125
6.86493
-0.0161918
-6.31177
6.36035