/*--------------------------------*- C++ -*----------------------------------*\
  =========                 |
  \\      /  F ield         | OpenFOAM: The Open Source CFD Toolbox
   \\    /   O peration     | Website:  https://openfoam.org
    \\  /    A nd           | Version:  6
     \\/     M anipulation  |
\*---------------------------------------------------------------------------*/
FoamFile
{
    version     2.0;
    format      ascii;
    class       volVectorField;
    location    "0.0001";
    object      U;
}
// * * * * * * * * * * * * * * * * * * * * * * * * * * * * * * * * * * * * * //

dimensions      [0 1 -1 0 0 0 0];

internalField   nonuniform List<vector> 
3704
(
(650 -5.09899e-13 0)
(650 -3.40489e-13 0)
(650 -2.92396e-13 0)
(650 5.46139e-14 0)
(650 2.00731e-13 0)
(650 1.6842e-13 0)
(650 2.51734e-13 0)
(650 1.14048e-13 0)
(650 3.85264e-13 0)
(650 1.56869e-13 0)
(650 2.70506e-13 0)
(650 3.42071e-15 0)
(650 1.08285e-14 0)
(650 8.82745e-14 0)
(650 1.17626e-13 0)
(650 2.26375e-13 0)
(650 2.02224e-13 0)
(650 -1.09358e-14 0)
(650 -9.96596e-14 0)
(650 -2.32099e-13 0)
(650 -4.24011e-13 0)
(650 -5.20923e-13 0)
(650 -3.8155e-13 0)
(650 -7.42514e-13 0)
(650 -5.79739e-13 0)
(650 -1.31675e-13 0)
(650 -6.76039e-14 0)
(650 -1.36946e-13 0)
(650 -4.97569e-14 0)
(650 2.28541e-13 0)
(650 2.25197e-13 0)
(650 1.03902e-13 0)
(650 -5.70527e-14 0)
(650 1.78138e-13 0)
(650 -1.33061e-14 0)
(650 -4.28477e-12 0)
(650 -4.03953e-11 0)
(650 -2.9844e-10 0)
(650 -1.86753e-09 0)
(650 -9.98462e-09 0)
(650 -4.56331e-08 0)
(650 -1.79571e-07 0)
(650 -6.18134e-07 0)
(650 -1.90225e-06 0)
(650 -5.3396e-06 0)
(650 -1.38823e-05 0)
(650 -3.33736e-05 0)
(650 -6.90543e-05 0)
(650 -2.2931e-05 0)
(650 0.000249384 0)
(650 -5.35696e-13 0)
(650 -5.33702e-13 0)
(650 -5.64824e-13 0)
(650 -9.81179e-14 0)
(650 3.53114e-13 0)
(650 4.63716e-13 0)
(650 3.10032e-13 0)
(650 2.37537e-13 0)
(650 2.83201e-13 0)
(650 1.1299e-13 0)
(650 2.73246e-13 0)
(650 -1.38633e-13 0)
(650 -1.36706e-13 0)
(650 -2.19475e-14 0)
(650 4.93354e-14 0)
(650 3.64149e-13 0)
(650 1.94727e-13 0)
(650 1.30473e-13 0)
(650 -9.01567e-15 0)
(650 -2.91239e-13 0)
(650 -2.86349e-13 0)
(650 -4.27205e-13 0)
(650 -4.62605e-13 0)
(650 -5.38411e-13 0)
(650 -4.96203e-13 0)
(650 -8.01651e-14 0)
(650 -7.5539e-14 0)
(650 -2.17871e-13 0)
(650 -2.47587e-13 0)
(650 2.81642e-13 0)
(650 1.84875e-13 0)
(650 2.21026e-13 0)
(650 -4.14957e-14 0)
(650 1.22434e-13 0)
(650 -2.82386e-13 0)
(650 -5.71267e-12 0)
(650 -4.95642e-11 0)
(650 -3.54996e-10 0)
(650 -2.14152e-09 0)
(650 -1.09882e-08 0)
(650 -4.80185e-08 0)
(650 -1.8042e-07 0)
(650 -5.94158e-07 0)
(650 -1.75997e-06 0)
(650 -4.78339e-06 0)
(650 -1.20968e-05 0)
(650 -2.84647e-05 0)
(650 -5.99572e-05 0)
(650 -3.11206e-05 0)
(650 0.000186476 0)
(650 -5.66954e-13 0)
(650 -4.71238e-13 0)
(650 -3.53534e-13 0)
(650 -1.88723e-13 0)
(650 3.97529e-13 0)
(650 4.87586e-13 0)
(650 2.18129e-13 0)
(650 4.00978e-13 0)
(650 2.69654e-13 0)
(650 2.19013e-13 0)
(650 1.42378e-13 0)
(650 -5.34463e-14 0)
(650 -1.1153e-13 0)
(650 -1.26549e-13 0)
(650 5.43e-14 0)
(650 2.31832e-13 0)
(650 2.12791e-13 0)
(650 2.59485e-13 0)
(650 1.29786e-14 0)
(650 -2.52419e-13 0)
(650 -2.92584e-13 0)
(650 -4.08346e-13 0)
(650 -6.73376e-13 0)
(650 -6.20607e-13 0)
(650 -6.23957e-13 0)
(650 -1.95116e-13 0)
(650 -1.33611e-14 0)
(650 -1.36345e-13 0)
(650 -1.26222e-13 0)
(650 -2.18538e-14 0)
(650 2.74568e-13 0)
(650 2.89785e-13 0)
(650 9.26624e-14 0)
(650 1.0398e-13 0)
(650 -4.77712e-13 0)
(650 -6.23868e-12 0)
(650 -5.21922e-11 0)
(650 -3.63567e-10 0)
(650 -2.12557e-09 0)
(650 -1.05564e-08 0)
(650 -4.46999e-08 0)
(650 -1.6326e-07 0)
(650 -5.25745e-07 0)
(650 -1.53185e-06 0)
(650 -4.10682e-06 0)
(650 -1.02965e-05 0)
(650 -2.41949e-05 0)
(650 -5.54931e-05 0)
(650 -4.32709e-05 0)
(650 9.43215e-05 0)
(650 -5.56469e-13 0)
(650 -2.98392e-13 0)
(650 -2.06241e-13 0)
(650 -2.57225e-13 0)
(650 2.53048e-13 0)
(650 2.81209e-13 0)
(650 1.67645e-13 0)
(650 2.35804e-13 0)
(650 1.93686e-13 0)
(650 1.65802e-13 0)
(650 -2.77509e-15 0)
(650 -8.05595e-14 0)
(650 2.02432e-15 0)
(650 -1.79485e-13 0)
(650 5.28281e-14 0)
(650 1.44365e-13 0)
(650 2.04972e-13 0)
(650 2.19972e-13 0)
(650 -3.47755e-14 0)
(650 -1.73538e-13 0)
(650 -5.61069e-13 0)
(650 -3.89646e-13 0)
(650 -6.81178e-13 0)
(650 -6.82186e-13 0)
(650 -7.27116e-13 0)
(650 -3.2045e-13 0)
(650 -2.29194e-14 0)
(650 3.41176e-14 0)
(650 -1.61916e-14 0)
(650 -4.15734e-13 0)
(650 1.07601e-13 0)
(650 3.87432e-13 0)
(650 1.7839e-13 0)
(650 2.88599e-14 0)
(650 -6.50941e-13 0)
(650 -6.56977e-12 0)
(650 -5.20628e-11 0)
(650 -3.47356e-10 0)
(650 -1.94199e-09 0)
(650 -9.23967e-09 0)
(650 -3.7742e-08 0)
(650 -1.34558e-07 0)
(650 -4.29324e-07 0)
(650 -1.25164e-06 0)
(650 -3.37004e-06 0)
(650 -8.51085e-06 0)
(650 -2.02178e-05 0)
(650 -5.06824e-05 0)
(650 -4.24279e-05 0)
(650 2.8826e-05 0)
(650 -3.29496e-13 0)
(650 -2.1282e-13 0)
(650 -1.99414e-13 0)
(650 -2.43991e-13 0)
(650 7.8934e-15 0)
(650 2.5847e-13 0)
(650 2.03573e-13 0)
(650 1.10489e-13 0)
(650 1.75462e-13 0)
(650 1.56575e-14 0)
(650 -8.30287e-14 0)
(650 -9.43434e-14 0)
(650 -5.91888e-15 0)
(650 -1.97465e-13 0)
(650 -1.01263e-14 0)
(650 5.49722e-14 0)
(650 2.29369e-13 0)
(650 1.96454e-13 0)
(650 8.95572e-15 0)
(650 -7.85881e-14 0)
(650 -6.73577e-13 0)
(650 -3.92016e-13 0)
(650 -5.71306e-13 0)
(650 -7.2907e-13 0)
(650 -7.53448e-13 0)
(650 -3.10726e-13 0)
(650 -9.2529e-14 0)
(650 -9.35111e-14 0)
(650 -1.42314e-13 0)
(650 -4.48297e-13 0)
(650 3.99737e-14 0)
(650 4.42446e-13 0)
(650 6.34493e-14 0)
(650 2.91704e-14 0)
(650 -4.2399e-13 0)
(650 -4.41857e-12 0)
(650 -3.56183e-11 0)
(650 -2.39628e-10 0)
(650 -1.34749e-09 0)
(650 -6.47555e-09 0)
(650 -2.68924e-08 0)
(650 -9.81594e-08 0)
(650 -3.22299e-07 0)
(650 -9.67213e-07 0)
(650 -2.66642e-06 0)
(650 -6.8487e-06 0)
(650 -1.65788e-05 0)
(650 -4.72255e-05 0)
(650 -3.3825e-05 0)
(650 2.03838e-05 0)
(-293.677 148.448 2.25581e-19)
(617.04 159.38 4.03829e-20)
(612.119 212.356 -2.85185e-19)
(641.834 107.034 2.21237e-17)
(642.462 39.235 -6.09335e-19)
(626.709 -52.1074 1.61893e-17)
(596.179 -116.708 0)
(553.193 -197.707 -2.9441e-18)
(530.039 -199.901 1.60551e-18)
(442.014 -262.558 8.104e-17)
(337.076 -281.367 3.16775e-18)
(229.376 -271.536 -1.04963e-16)
(146.438 -225.484 -1.07523e-16)
(94.1783 -132.854 0)
(30.3248 -22.1178 1.90176e-17)
(-221.231 157.296 0)
(580.997 165.22 -6.3485e-18)
(579.869 220.785 0)
(594.19 161.703 -1.99858e-17)
(553.188 163.661 -7.80618e-17)
(615.028 -8.21827 -2.50985e-17)
(603.515 -47.2942 -2.41254e-17)
(609.717 -105.42 1.3947e-18)
(583.763 -147.739 3.74547e-17)
(475.041 -254.818 -4.37858e-17)
(350.225 -283.797 -8.86835e-17)
(224.333 -282.762 -2.74668e-18)
(137.705 -228.754 9.44916e-17)
(105.339 -120.09 0)
(29.7679 -16.7399 1.78536e-17)
(-106.414 169.337 0)
(531.799 163.174 5.04529e-18)
(443.684 348.934 -6.93433e-17)
(436.156 438.673 0)
(551.841 305.369 6.37469e-17)
(619.279 101.383 4.44719e-17)
(637.535 -1.28101 1.85868e-17)
(633.187 -89.098 2.12779e-18)
(580.345 -179.332 -3.35734e-17)
(470.038 -269.04 -7.94724e-17)
(351.762 -283.732 1.66345e-16)
(227.114 -282.018 9.41751e-17)
(141.478 -228.013 8.93139e-17)
(141.087 -112.302 5.18725e-17)
(40.0702 -16.8251 -8.85554e-18)
(-24.4963 183.312 0)
(486.405 204.148 -1.25532e-17)
(311.906 587.402 3.01442e-17)
(451.582 502.662 4.37861e-19)
(601.955 263.277 4.08928e-18)
(645.804 113.577 -9.03572e-17)
(655.432 -18.2737 2.46109e-17)
(633.137 -93.6203 2.23381e-18)
(569.437 -211.153 -6.32189e-17)
(460.163 -282.386 7.32635e-17)
(342.43 -291.343 -1.50094e-16)
(221.58 -283.951 5.35198e-18)
(138.565 -227.04 8.29169e-19)
(168.909 -106.175 -5.30061e-19)
(54.2487 -14.5533 -8.433e-18)
(41.3245 192.598 0)
(438.071 239.657 2.53169e-17)
(352.667 534.446 5.90243e-19)
(542.914 432.791 0)
(643.312 241.122 -3.30785e-17)
(656.572 109.386 9.28865e-17)
(665.82 -30.8764 -2.37774e-17)
(628.01 -104.826 -1.13178e-18)
(556.369 -232.797 8.71577e-17)
(438.891 -301.361 9.65448e-19)
(294.974 -334.565 7.25595e-17)
(157.528 -326.165 -1.58653e-16)
(73.1982 -259.086 -7.87065e-17)
(157.477 -108.538 -1.16355e-16)
(40.6427 -13.8654 1.56624e-17)
(25.3107 22.9531 0)
(72.9136 137.958 -1.93863e-18)
(143.67 220.976 -2.48838e-18)
(240.507 265.128 1.14658e-16)
(336.37 281.847 0)
(432.93 272.811 8.54824e-17)
(516.698 216.25 3.17411e-17)
(549.945 210.954 -9.02916e-19)
(591.709 128.989 -4.24095e-19)
(621.139 52.9493 2.83251e-19)
(639.34 -24.1259 1.35154e-18)
(636.574 -111.432 3.42993e-17)
(646.526 -162.652 -9.32493e-19)
(601.595 -172.824 0)
(-443.962 290.125 -1.01043e-17)
(28.1441 16.5438 0)
(67.2132 137.402 0)
(137.632 217.937 -1.08418e-16)
(237.058 270.444 -1.03986e-16)
(351.09 291.014 -1.21796e-18)
(469.846 260.357 1.01162e-17)
(569.838 163.469 3.71814e-17)
(604.336 131.187 -2.74575e-19)
(601.278 51.7961 2.49326e-17)
(610.228 5.94863 3.80195e-17)
(540.279 -175.158 0)
(595.138 -158.814 -1.77601e-17)
(614.881 -186.212 3.1444e-17)
(577.428 -170.757 1.81886e-19)
(-338.272 261.62 0)
(47.8143 12.7908 0)
(88.7594 139.351 -1.56441e-18)
(164.917 202.219 1.6744e-18)
(232.149 279.423 -9.50833e-17)
(346.923 301.865 0)
(471.028 259.671 -7.65266e-17)
(571.372 182.902 -1.01484e-16)
(630.185 114.193 0)
(639.925 5.46189 -1.89755e-17)
(622.801 -99.4456 1.12381e-17)
(550.527 -313.352 -7.20451e-19)
(459.753 -375.336 3.41932e-19)
(489.174 -353.869 -1.27943e-16)
(522.473 -169.439 0)
(-266.357 228.41 0)
(45.4033 8.20391 0)
(91.332 141.985 0)
(182.361 192.074 8.93718e-17)
(226.124 289.533 8.64e-17)
(334.786 306.709 8.42758e-17)
(460.675 264.268 -3.8942e-19)
(563.274 213.531 5.88502e-17)
(632.424 110.66 -1.00485e-18)
(657.593 23.967 2.56185e-17)
(652.227 -109.056 -4.25445e-17)
(602.159 -262.155 1.78098e-18)
(477.37 -453.598 -1.25534e-18)
(340.994 -629.365 2.8954e-17)
(499.664 -238.963 4.28157e-19)
(-193.512 157.822 -1.00948e-17)
(0.927911 8.23796 0)
(26.4599 151.96 -1.33624e-18)
(170.302 201.133 -8.47681e-18)
(181.365 334.957 -7.32539e-17)
(273.517 342.046 -7.39566e-17)
(432.951 289.168 -1.37006e-18)
(550.888 241.563 3.0728e-17)
(627.22 118.718 8.94964e-19)
(668.471 39.3798 -2.40246e-17)
(660.88 -105.825 4.8395e-17)
(643.336 -229.232 3.94471e-17)
(557.431 -407.402 -1.18754e-18)
(370.058 -583.232 -4.66761e-17)
(444.907 -339.144 0)
(-122.575 61.6043 1.04355e-17)
(650 -0.000297062 0)
(650 -1.571e-06 0)
(650 5.03791e-05 0)
(650 3.15406e-05 0)
(650 1.31692e-05 0)
(650 5.12884e-06 0)
(650 1.84451e-06 0)
(650 6.02971e-07 0)
(650 1.75717e-07 0)
(650 4.47126e-08 0)
(650 9.78641e-09 0)
(650 1.83035e-09 0)
(650 2.92963e-10 0)
(650 4.00016e-11 0)
(650 4.73396e-12 0)
(650 3.71642e-13 0)
(650 4.59409e-14 0)
(650 -5.82238e-14 0)
(650 2.83439e-14 0)
(650 7.2276e-14 0)
(650 -1.1546e-13 0)
(650 -4.25034e-14 0)
(650 1.14499e-13 0)
(650 2.47773e-13 0)
(650 3.41442e-13 0)
(650 2.84518e-13 0)
(650 3.22366e-14 0)
(650 1.47264e-14 0)
(650 7.31862e-14 0)
(650 6.642e-14 0)
(650 9.48592e-15 0)
(650 1.45153e-13 0)
(650 1.18973e-13 0)
(650 -1.4562e-13 0)
(650 -1.10824e-13 0)
(650 -2.75606e-15 0)
(650 -1.8967e-13 0)
(650 -1.26011e-13 0)
(650 -1.75154e-13 0)
(650 -4.43993e-13 0)
(650 6.15859e-14 0)
(650 3.89572e-13 0)
(650 1.18632e-13 0)
(650 1.5326e-13 0)
(650 1.20306e-13 0)
(650 4.03066e-14 0)
(650 1.40462e-13 0)
(650 5.29737e-13 0)
(650 4.8177e-13 0)
(650 3.43871e-13 0)
(650 -0.000270111 0)
(650 -4.77225e-06 0)
(650 4.04263e-05 0)
(650 2.69879e-05 0)
(650 1.14685e-05 0)
(650 4.58284e-06 0)
(650 1.70266e-06 0)
(650 5.78828e-07 0)
(650 1.76463e-07 0)
(650 4.70469e-08 0)
(650 1.07715e-08 0)
(650 2.09923e-09 0)
(650 3.48442e-10 0)
(650 4.92556e-11 0)
(650 6.28334e-12 0)
(650 7.8637e-13 0)
(650 2.70111e-13 0)
(650 -4.14289e-13 0)
(650 -2.36184e-13 0)
(650 -2.18425e-13 0)
(650 -3.36088e-13 0)
(650 -2.45133e-13 0)
(650 7.5395e-14 0)
(650 4.18089e-13 0)
(650 3.06729e-13 0)
(650 -3.63864e-16 0)
(650 -1.73883e-13 0)
(650 3.01636e-13 0)
(650 2.85694e-13 0)
(650 8.45626e-14 0)
(650 1.33092e-13 0)
(650 -2.20578e-14 0)
(650 4.62217e-14 0)
(650 -1.4424e-13 0)
(650 -4.34508e-14 0)
(650 9.05471e-14 0)
(650 7.56092e-15 0)
(650 -2.07597e-13 0)
(650 -2.05122e-13 0)
(650 -3.37859e-13 0)
(650 1.01451e-13 0)
(650 1.28609e-13 0)
(650 9.02924e-14 0)
(650 3.45289e-13 0)
(650 2.48818e-13 0)
(650 1.06964e-13 0)
(650 2.54686e-14 0)
(650 5.34979e-13 0)
(650 4.99282e-13 0)
(650 5.65454e-13 0)
(650 -0.000203951 0)
(650 7.45023e-06 0)
(650 3.83494e-05 0)
(650 2.25502e-05 0)
(650 9.7741e-06 0)
(650 3.93596e-06 0)
(650 1.48065e-06 0)
(650 5.11765e-07 0)
(650 1.59619e-07 0)
(650 4.37937e-08 0)
(650 1.03496e-08 0)
(650 2.08394e-09 0)
(650 3.57151e-10 0)
(650 5.20852e-11 0)
(650 6.88526e-12 0)
(650 1.04371e-12 0)
(650 1.011e-13 0)
(650 -4.47853e-13 0)
(650 -3.59209e-13 0)
(650 -5.7345e-13 0)
(650 -5.14527e-13 0)
(650 -1.03698e-13 0)
(650 -1.05022e-13 0)
(650 3.38004e-13 0)
(650 2.71118e-13 0)
(650 -1.27275e-13 0)
(650 -1.83748e-13 0)
(650 2.91978e-13 0)
(650 2.91669e-13 0)
(650 -6.21234e-14 0)
(650 4.34726e-14 0)
(650 -2.43327e-13 0)
(650 2.69127e-14 0)
(650 1.43286e-15 0)
(650 -1.06595e-13 0)
(650 1.99704e-13 0)
(650 7.63985e-14 0)
(650 -3.16104e-13 0)
(650 -1.25442e-13 0)
(650 -9.69111e-14 0)
(650 8.74288e-14 0)
(650 -5.48362e-15 0)
(650 2.32927e-13 0)
(650 4.42657e-13 0)
(650 9.07057e-14 0)
(650 1.97807e-13 0)
(650 1.5831e-13 0)
(650 5.47927e-13 0)
(650 3.31016e-13 0)
(650 6.4574e-13 0)
(650 -0.000137062 0)
(650 1.22823e-05 0)
(650 3.65977e-05 0)
(650 1.82291e-05 0)
(650 8.06956e-06 0)
(650 3.23199e-06 0)
(650 1.20945e-06 0)
(650 4.17645e-07 0)
(650 1.31509e-07 0)
(650 3.69735e-08 0)
(650 9.05981e-09 0)
(650 1.90446e-09 0)
(650 3.4161e-10 0)
(650 5.20372e-11 0)
(650 7.13629e-12 0)
(650 1.01248e-12 0)
(650 -3.38327e-14 0)
(650 -3.50023e-13 0)
(650 -2.84768e-13 0)
(650 -5.50479e-13 0)
(650 -4.90883e-13 0)
(650 4.20057e-14 0)
(650 1.70639e-14 0)
(650 1.59675e-13 0)
(650 2.91907e-13 0)
(650 -1.3089e-13 0)
(650 -1.1258e-13 0)
(650 -3.93187e-14 0)
(650 2.40642e-13 0)
(650 -3.28655e-15 0)
(650 -3.95703e-14 0)
(650 -2.05438e-13 0)
(650 -9.06232e-15 0)
(650 1.41371e-13 0)
(650 -1.18096e-13 0)
(650 2.42194e-13 0)
(650 3.51944e-14 0)
(650 -2.97833e-13 0)
(650 -5.90575e-14 0)
(650 1.67765e-14 0)
(650 3.72597e-14 0)
(650 6.08548e-15 0)
(650 3.24643e-13 0)
(650 4.03401e-13 0)
(650 1.1768e-13 0)
(650 4.05213e-13 0)
(650 3.76323e-13 0)
(650 5.74404e-13 0)
(650 1.92063e-13 0)
(650 4.00285e-13 0)
(650 -0.000107937 0)
(650 1.15933e-05 0)
(650 3.46825e-05 0)
(650 1.47561e-05 0)
(650 6.48642e-06 0)
(650 2.56251e-06 0)
(650 9.3701e-07 0)
(650 3.1414e-07 0)
(650 9.6068e-08 0)
(650 2.63643e-08 0)
(650 6.35334e-09 0)
(650 1.3217e-09 0)
(650 2.35973e-10 0)
(650 3.58159e-11 0)
(650 4.92633e-12 0)
(650 6.04398e-13 0)
(650 -7.54278e-14 0)
(650 -3.14853e-13 0)
(650 -2.94088e-13 0)
(650 -2.63714e-13 0)
(650 -3.5676e-13 0)
(650 3.9045e-14 0)
(650 2.66898e-13 0)
(650 1.24303e-13 0)
(650 2.65834e-13 0)
(650 -1.37207e-13 0)
(650 -1.06476e-13 0)
(650 -3.17274e-13 0)
(650 9.88338e-14 0)
(650 1.61318e-13 0)
(650 -7.61701e-14 0)
(650 -1.47964e-13 0)
(650 1.63587e-14 0)
(650 1.92243e-13 0)
(650 -1.19655e-13 0)
(650 2.73808e-13 0)
(650 -2.43479e-14 0)
(650 -2.73457e-13 0)
(650 -2.32549e-14 0)
(650 6.15001e-14 0)
(650 7.65599e-14 0)
(650 5.79809e-15 0)
(650 3.24924e-13 0)
(650 3.31944e-13 0)
(650 2.93799e-13 0)
(650 5.79741e-13 0)
(650 4.17742e-13 0)
(650 5.80774e-13 0)
(650 1.79123e-13 0)
(650 2.40457e-13 0)
(650 -9.79756e-14 0)
(650 2.31468e-15 0)
(650 7.28338e-15 1.08169e-17)
(650 3.6383e-14 -1.12283e-17)
(650 -4.93909e-14 0)
(650 6.18319e-14 0)
(650 -1.39661e-13 1.10452e-17)
(650 -2.03859e-13 4.4069e-17)
(650 5.52145e-15 0)
(650 -3.22143e-14 0)
(650 -2.12922e-13 -2.15179e-17)
(650 3.15718e-14 -2.14851e-17)
(650 -2.77828e-13 -2.1517e-17)
(650 -1.42124e-13 -2.14391e-17)
(650 -4.15865e-16 -2.09819e-17)
(650 -1.398e-13 2.0831e-17)
(650 -2.86112e-13 4.15725e-17)
(650 -3.07311e-13 4.17633e-17)
(650 -1.37963e-13 0)
(650 -1.68434e-13 2.0863e-17)
(650 -1.74538e-13 -4.18686e-17)
(650 5.96375e-14 -2.09027e-17)
(650 -6.7116e-14 0)
(650 1.73923e-12 2.08174e-17)
(650 9.51328e-11 -2.08716e-17)
(650 3.21423e-09 2.09063e-17)
(650 6.45972e-08 -2.09371e-17)
(650 8.92447e-07 4.22416e-17)
(650 9.96236e-06 0)
(650 8.40355e-05 0)
(650 0.000163201 3.75574e-17)
(650 -8.35232e-06 -1.07522e-17)
(650 -8.93118e-06 -1.09556e-17)
(650 -2.32738e-06 -2.25451e-17)
(650 4.99275e-07 0)
(650 2.06686e-06 0)
(650 1.44157e-06 -1.04512e-17)
(650 -3.47704e-08 0)
(650 -1.7851e-10 2.09727e-17)
(650 1.24102e-13 -6.96112e-32)
(650 4.56507e-13 2.08026e-17)
(650 -9.28446e-14 -2.07228e-17)
(650 3.33322e-13 2.08152e-17)
(650 -4.79694e-14 -5.74239e-32)
(650 1.77784e-13 0)
(650 2.1606e-13 4.15661e-17)
(650 1.13002e-13 0)
(650 4.08538e-14 -2.07301e-17)
(650 -1.13228e-13 0)
(650 -2.67529e-13 -1.03631e-17)
(650 -3.47445e-14 -3.14315e-17)
(650 -2.08742e-13 0)
(650 -4.49777e-14 0)
(650 -5.52984e-12 4.25804e-17)
(650 4.48097e-07 0)
(649.987 0.00365082 9.05968e-18)
(645.328 5.35248 0)
(536.404 24.4309 3.0242e-17)
(327.406 95.6663 0)
(131.824 192.634 -3.46959e-17)
(278.345 226.737 2.94555e-17)
(650 4.10303e-10 -2.9216e-17)
(476.374 350.488 0)
(605.009 280.478 -5.99259e-18)
(660.358 153.079 -1.55022e-17)
(662.162 29.7095 -8.5173e-18)
(639.486 -108.564 0)
(587.629 -213.374 -2.33489e-17)
(511.744 -279.147 -2.61984e-17)
(404.867 -298.136 -2.33425e-17)
(279.152 -312.292 2.35513e-17)
(227.617 -287.765 4.10231e-17)
(220.137 -236.661 0)
(292.958 -85.3251 1.25597e-16)
(161.126 -77.9473 3.45147e-17)
(643.837 7.11295 1.01988e-17)
(649.984 0.0170079 0)
(650 4.75075e-05 9.13837e-18)
(650 1.10459e-07 0)
(650 8.49929e-11 0)
(650 -4.70851e-14 0)
(650 8.25338e-14 0)
(650 -3.94584e-13 -1.49647e-17)
(650 -2.51165e-13 0)
(650 1.46167e-13 -7.60734e-18)
(650 5.36008e-05 -1.93391e-17)
(650 2.99759e-07 1.09244e-17)
(616.312 -86.2249 -6.14172e-17)
(650 1.78802e-15 0)
(650 -3.38686e-14 0)
(650 3.08331e-14 -2.15399e-17)
(650 8.61673e-14 0)
(650 -2.36834e-14 1.09706e-17)
(650 9.16552e-14 -3.49405e-19)
(650 5.09519e-15 3.34668e-17)
(650 1.59083e-14 -3.37901e-17)
(650 -2.04022e-13 3.17139e-17)
(650 -1.8016e-13 -2.19506e-17)
(650 -2.12213e-14 0)
(650 -1.80348e-13 -2.14609e-17)
(650 -9.79732e-14 -2.16007e-17)
(650 -2.35418e-13 0)
(650 -2.05081e-13 4.32465e-17)
(650 -1.29184e-13 2.12264e-17)
(650 1.25349e-13 -2.08792e-17)
(650 -5.66242e-13 4.16431e-17)
(650 -2.78364e-13 -2.08564e-17)
(650 -3.45485e-13 2.0894e-17)
(650 -7.93827e-14 2.08382e-17)
(650 -5.55314e-14 -1.49191e-31)
(650 -6.27275e-14 2.09266e-17)
(650 -7.72488e-14 0)
(650 2.36907e-13 0)
(650 1.3108e-11 -2.08693e-17)
(650 5.92742e-10 0)
(650 1.52562e-08 2.08996e-17)
(650 2.48803e-07 2.09935e-17)
(650 3.04261e-06 0)
(650 3.05272e-05 -2.16417e-17)
(650 -1.12858e-14 0)
(650 0.000193299 2.26507e-17)
(650 -3.18085e-06 1.0412e-17)
(650 -5.11591e-06 2.23743e-17)
(650 -7.88147e-07 1.11311e-17)
(650 1.17179e-13 0)
(650 -1.36624e-06 0)
(650 -6.16947e-08 0)
(650 -3.58299e-08 -1.98441e-17)
(623.785 44.9521 -7.41394e-17)
(650 1.53354e-07 1.92053e-17)
(650 -1.15239e-09 2.08473e-17)
(650 -4.69908e-12 0)
(650 2.91504e-13 7.25918e-32)
(650 1.26497e-13 -2.0709e-17)
(650 1.26133e-13 -3.63436e-32)
(650 1.99011e-13 0)
(650 1.19487e-13 0)
(650 6.80949e-14 2.07174e-17)
(650 3.47425e-13 0)
(650 8.52833e-15 2.07783e-17)
(650 -6.0685e-14 0)
(650 -1.33312e-13 0)
(650 -2.85915e-13 -2.08781e-17)
(650 -1.16415e-13 -2.12662e-17)
(650 -1.50695e-13 0)
(650 -1.00281e-13 0)
(650 6.93148e-10 -1.44337e-17)
(650 4.54145e-05 0)
(649.674 0.459029 0)
(610.774 14.6222 0)
(460.68 63.3496 2.57757e-17)
(700.205 162.825 -6.67388e-19)
(463.316 350.275 0)
(427.069 302.819 -2.06284e-17)
(606.201 296.721 5.04318e-18)
(684.377 21.5483 8.97422e-18)
(662.132 -110.398 0)
(613.451 -211.572 -1.81773e-17)
(544.263 -294.754 7.33475e-17)
(456.453 -350.574 3.22332e-18)
(326.396 -347.526 -4.31876e-17)
(338.195 -212.294 -3.7418e-17)
(435.623 -75.6997 0)
(538.65 -42.811 0)
(649.641 0.197336 8.67709e-18)
(649.999 0.000894858 -1.15404e-17)
(650 2.43296e-06 0)
(650 -5.90925e-07 3.19885e-18)
(650 3.9808e-09 3.05469e-27)
(650 -6.91159e-10 1.66541e-17)
(650 6.28244e-13 -8.3376e-31)
(650 1.78022e-13 1.41284e-17)
(650 -2.54663e-13 -3.57573e-17)
(650 -4.91896e-13 -2.27033e-17)
(650 -1.51388e-13 0)
(650 5.05668e-14 -1.11447e-17)
(650 1.7134e-14 -1.12448e-17)
(650 -1.15585e-13 1.23941e-17)
(650 5.68236e-14 4.22376e-20)
(650 -1.66816e-13 0)
(650 3.16783e-14 0)
(650 -1.35028e-14 2.15541e-17)
(650 -9.94433e-14 0)
(650 -7.44642e-14 -2.15266e-17)
(650 -1.38541e-14 -3.40822e-32)
(650 -5.22978e-14 2.08932e-17)
(650 3.01299e-13 -4.15425e-17)
(650 3.6033e-13 -2.07404e-17)
(650 1.62115e-13 -4.16098e-17)
(650 1.57481e-13 1.01965e-20)
(650 2.83507e-13 2.0893e-17)
(650 -1.00327e-14 1.02074e-20)
(650 -1.52589e-13 4.07686e-20)
(650 -5.4321e-14 0)
(650 -8.50218e-14 -2.08399e-17)
(650 -6.65591e-12 2.08845e-17)
(650 -9.54456e-11 -2.08868e-17)
(650 1.47482e-09 2.10174e-17)
(650 7.49523e-08 -2.14409e-17)
(650 1.73293e-06 0)
(650 4.1839e-05 0)
(650 -6.50691e-06 -2.17326e-17)
(650 -1.19969e-06 1.12403e-17)
(650 -1.84996e-06 -1.52694e-18)
(650 -3.1366e-09 -6.33178e-19)
(650 3.17819e-11 -1.63479e-19)
(650 -3.21792e-13 4.15858e-17)
(650 -6.0826e-14 -2.06947e-17)
(650 -3.65543e-13 2.07511e-17)
(650 -3.26644e-13 0)
(650 -1.95978e-14 -2.0814e-17)
(650 2.54908e-13 -2.07046e-17)
(650 2.36747e-13 -2.07818e-17)
(650 5.39515e-13 -2.08311e-17)
(650 1.19608e-13 0)
(650 2.01127e-13 0)
(650 -1.10969e-13 3.10538e-17)
(650 -1.45794e-13 3.16046e-17)
(650 -1.78477e-13 0)
(650 4.65457e-14 4.01709e-18)
(650 3.23051e-10 -2.59652e-17)
(650 9.61936e-06 0)
(649.932 0.0413779 -9.63267e-18)
(635.699 6.97208 0)
(499.212 56.7713 -3.24873e-17)
(650 1.88234e-08 -4.03123e-27)
(647.996 -1.48082 -9.1404e-18)
(649.991 -0.00461607 1.22297e-17)
(650 -1.25681e-05 -3.91631e-18)
(650 -2.35419e-08 -2.08856e-17)
(650 -8.99153e-12 1.41536e-17)
(650 -2.20169e-14 -1.6764e-17)
(650 -1.04684e-13 1.53643e-17)
(650 -2.38706e-13 2.53458e-17)
(650 -1.68103e-13 4.31142e-17)
(650 -4.03734e-14 2.14829e-17)
(650 -3.32977e-14 -2.16567e-17)
(650 -9.05112e-14 2.10837e-17)
(650 -7.48089e-14 8.15806e-20)
(650 1.57472e-13 -4.14475e-17)
(650 3.28698e-13 6.08639e-33)
(650 3.74528e-13 2.04115e-20)
(650 2.39171e-13 -4.16869e-17)
(650 1.08673e-13 1.52329e-32)
(650 -1.92172e-13 2.09085e-17)
(650 -7.74699e-14 0)
(650 -1.61651e-13 2.03857e-20)
(650 -1.29162e-12 2.08538e-17)
(650 -3.093e-11 0)
(650 -6.93391e-11 -2.08799e-17)
(650 1.30502e-08 -4.23319e-17)
(650 3.64036e-07 3.39344e-19)
(650 8.18467e-06 2.17642e-17)
(650 -4.23805e-06 1.02361e-17)
(650 -3.15932e-06 0)
(650 -1.65211e-07 1.38405e-18)
(650 -7.43091e-14 4.138e-17)
(650 -4.34157e-13 -4.15349e-17)
(650 2.64068e-14 2.07987e-17)
(650 2.10283e-13 0)
(650 1.38516e-13 -2.06885e-17)
(650 4.33089e-13 2.01737e-20)
(650 4.30306e-13 2.06787e-17)
(650 9.92074e-14 4.04008e-20)
(650 -4.49426e-14 0)
(650 -9.79191e-14 2.08923e-17)
(650 -2.72085e-14 6.70095e-19)
(650 -7.10373e-14 0)
(650 1.3646e-12 -1.95802e-17)
(650 8.87791e-08 1.60516e-17)
(649.998 0.000627967 -3.86448e-18)
(648.705 0.994045 0)
(574.193 22.0445 -2.05479e-17)
(401.394 102.309 0)
(650 7.85859e-14 -4.27404e-17)
(650 8.54006e-14 2.11271e-17)
(650 1.66808e-13 -1.01871e-17)
(650 -3.21826e-06 -1.11613e-17)
(650 -1.8859e-13 -2.07943e-17)
(650 1.05655e-13 -2.09424e-17)
(650 5.51656e-10 -4.14676e-17)
(650 -3.31474e-13 0)
(650 6.89153e-14 3.55832e-17)
(650 -7.06526e-14 0)
(650 -0.0002295 -9.95186e-18)
(649.835 -0.104331 0)
(650 7.22467e-14 -1.08777e-17)
(650 5.10477e-15 2.16389e-17)
(650 -1.06207e-13 0)
(650 2.59509e-13 2.01432e-17)
(650 6.03456e-14 0)
(650 2.10145e-14 -2.22629e-17)
(650 -2.69495e-06 1.09325e-18)
(650 0.000161278 -3.4085e-17)
(650 8.57059e-14 3.33921e-19)
(650 -1.34871e-13 -2.13774e-17)
(650 -6.94922e-09 2.12482e-17)
(650 -2.85863e-14 0)
(650 -2.37917e-14 0)
(650 -5.50535e-06 2.2205e-17)
(650 -1.49045e-13 -2.15446e-17)
(650 -4.33493e-15 -2.16861e-17)
(650 3.69229e-14 0)
(650 -6.86149e-14 2.08454e-17)
(650 2.83067e-13 -2.9351e-31)
(650 5.29005e-13 5.08104e-21)
(650 5.28379e-13 2.08753e-17)
(650 1.63182e-13 -2.08843e-17)
(650 2.45412e-13 -2.09586e-17)
(650 1.64927e-13 2.08085e-17)
(650 -6.99301e-14 -2.0964e-17)
(650 -1.24206e-13 -2.0927e-17)
(650 -3.00574e-13 2.0775e-17)
(650 -4.94519e-14 0)
(650 -8.46963e-12 -2.09058e-17)
(650 -3.74645e-10 2.09552e-17)
(650 -9.63656e-09 4.2573e-17)
(650 -1.48071e-07 -2.22969e-17)
(650 -3.15565e-06 2.10598e-17)
(650 -8.40568e-07 -2.25958e-17)
(650 -5.50137e-06 -1.87207e-17)
(650 -3.7089e-14 -1.39101e-31)
(650 7.00878e-14 2.1085e-17)
(650 -2.8364e-14 -2.1187e-17)
(650 -3.08717e-13 2.07589e-17)
(650 -2.98548e-06 -4.6238e-18)
(650 -4.55124e-07 -2.31289e-17)
(650 -7.86278e-07 2.19605e-17)
(650 -7.15731e-14 2.08356e-17)
(650 -7.96124e-14 -2.17422e-17)
(650 -2.07467e-13 2.35949e-17)
(650 -1.07755e-13 2.18941e-17)
(643.397 -4.88244 5.50444e-18)
(650 -1.56984e-13 -1.77211e-17)
(650 -2.44338e-13 -2.06872e-17)
(650 3.17109e-13 2.07683e-17)
(650 -2.75759e-13 2.06978e-17)
(650 -4.13983e-14 0)
(650 -5.57528e-13 2.08603e-17)
(650 2.33271e-13 -2.08686e-17)
(650 -4.03482e-13 0)
(650 -1.41332e-13 0)
(650 -1.67784e-14 2.07776e-17)
(650 7.22311e-15 -2.06061e-17)
(650 1.35374e-13 -2.07364e-17)
(650 4.292e-13 0)
(650 2.68537e-13 -4.06057e-20)
(650 -2.46454e-14 0)
(650 -1.01836e-13 -1.62012e-19)
(650 1.0731e-13 2.05917e-17)
(650 -7.21124e-14 -1.34388e-17)
(650 4.91069e-13 -1.97522e-17)
(650 1.99039e-08 -1.44602e-17)
(649.998 0.000240264 -1.03849e-17)
(648.881 0.16405 -2.39081e-17)
(637.241 1.81527 0)
(521.839 67.798 -1.20805e-17)
(383.769 309.467 1.13918e-17)
(650 6.89513e-14 4.41481e-17)
(650 3.32609e-14 2.13183e-31)
(683.277 86.1343 0)
(536.508 247.493 0)
(648.121 0.803612 1.89486e-17)
(632.322 186.66 -8.4352e-18)
(639.711 184.983 2.23878e-17)
(686.001 87.2952 1.78569e-17)
(650 2.98858e-07 4.40469e-17)
(649.992 0.000762756 0)
(650 4.04266e-13 2.03329e-17)
(650 4.37436e-06 -1.07729e-17)
(650 -1.86443e-06 -3.25674e-17)
(649.858 0.0235923 -1.47838e-17)
(649.99 -0.0125399 -6.66026e-18)
(650 7.13297e-12 -3.87078e-17)
(650 -4.08768e-13 1.10765e-17)
(650 4.76606e-10 -1.52578e-17)
(650 -7.14924e-11 2.05709e-17)
(650 1.58212e-14 4.35376e-17)
(650 5.32968e-05 -1.84317e-17)
(650 -3.59328e-05 2.3985e-17)
(650 2.83375e-14 -3.60036e-17)
(650 -3.29519e-13 -1.24453e-17)
(650 1.42579e-13 -1.13665e-17)
(650 -1.67098e-13 2.14975e-17)
(650 -1.69768e-13 0)
(650 1.45363e-13 -3.79644e-18)
(650 1.96306e-13 1.32407e-17)
(650 -1.55006e-13 0)
(690.64 -19.1944 -2.56868e-17)
(649.415 -118.07 0)
(614.631 -172.128 0)
(602.765 -185.732 -4.08579e-17)
(572.2 -170.352 2.7118e-17)
(563.092 -157.531 2.0172e-18)
(643.837 -21.7118 1.81258e-17)
(630.74 -17.1726 1.82886e-17)
(639.401 -7.31221 -1.82996e-17)
(644.689 1.57826 -1.74285e-17)
(650 1.22233e-07 1.2029e-25)
(650 -3.27083e-08 8.88252e-26)
(650 1.99253e-15 -2.263e-17)
(650 -5.63298e-14 0)
(650 -1.40691e-14 2.38482e-17)
(650 -2.95572e-11 2.10175e-17)
(650 4.18154e-12 -3.2713e-19)
(650 7.15857e-14 0)
(650 -1.06883e-05 2.08126e-17)
(650 -1.29516e-06 -1.9763e-17)
(440.681 256.059 0)
(429.175 178.485 0)
(550.295 228.589 0)
(650 -1.41086e-14 1.03408e-17)
(650 1.27107e-13 2.07024e-17)
(650 5.01616e-13 -2.0815e-17)
(650 1.35239e-13 3.50792e-19)
(650 1.3796e-13 7.19821e-19)
(649.731 -0.235124 8.05482e-18)
(650 -1.02826e-07 3.36478e-17)
(650 2.55229e-13 -2.06684e-17)
(650 5.96163e-13 0)
(650 -2.13328e-13 -2.17302e-17)
(650 2.13234e-14 -4.68373e-32)
(650 -3.28894e-07 -2.9625e-17)
(650 -2.27417e-14 -4.14357e-17)
(650 3.3204e-14 -1.70579e-17)
(650 1.43127e-13 0)
(650 3.45512e-14 -2.15474e-17)
(650 -4.71354e-14 1.69375e-19)
(650 -6.13164e-14 0)
(650 -1.12616e-13 2.06021e-17)
(650 2.11667e-13 0)
(650 2.56523e-13 -2.08988e-17)
(650 4.73856e-13 -2.09585e-17)
(650 2.93467e-13 -2.09455e-17)
(650 1.46273e-13 0)
(650 -1.6469e-13 2.08664e-17)
(650 -6.51896e-15 0)
(650 -1.66492e-13 -2.03164e-20)
(650 -2.33781e-13 2.0913e-17)
(650 -7.54086e-13 0)
(650 -6.14843e-11 -2.09957e-17)
(650 -2.03398e-09 0)
(650 -4.18999e-08 -3.39535e-19)
(650 7.92701e-07 -2.21892e-17)
(650 6.29985e-06 1.06609e-17)
(503.784 104.367 0)
(650 -7.94361e-14 6.64892e-19)
(650 3.83352e-07 -1.24083e-25)
(650 -1.0296e-06 2.09876e-17)
(650 -1.80307e-06 -1.11622e-17)
(650 -2.40866e-07 -2.3671e-17)
(650 -3.28173e-06 0)
(650 -1.28859e-13 4.3072e-17)
(650 -9.21872e-07 1.17259e-17)
(650 -1.20839e-13 2.16488e-17)
(650 1.60161e-13 9.66182e-18)
(650 -8.39266e-10 -8.19871e-20)
(650 -1.54182e-14 -4.07142e-20)
(650 -4.55302e-13 0)
(650 -2.13524e-13 -2.06473e-17)
(650 7.19792e-16 0)
(650 2.61675e-14 2.02518e-20)
(650 1.02997e-14 -2.08132e-17)
(650 1.15076e-13 0)
(650 1.27075e-13 2.07357e-17)
(650 4.19433e-13 -2.07443e-17)
(650 1.56295e-13 2.07818e-17)
(650 2.85858e-13 -2.07328e-17)
(650 -9.35023e-14 0)
(650 -1.41041e-15 -2.08743e-17)
(650 5.62256e-14 1.23964e-17)
(650 -4.01408e-14 2.30571e-17)
(650 1.04401e-13 -4.09116e-18)
(650 9.53578e-11 1.26868e-17)
(650 3.54984e-06 -2.16048e-17)
(649.946 0.00838604 1.74547e-17)
(646.3 0.893202 3.07918e-17)
(577.786 12.8673 -2.32933e-17)
(650 2.53364e-14 0)
(650 1.19499e-13 -2.08092e-17)
(699.677 -11.9817 2.04154e-17)
(650 5.37781e-14 -1.05887e-17)
(650 6.61257e-14 -2.29567e-17)
(649.999 -0.000657181 -1.03508e-17)
(650 2.2134e-09 0)
(650 -1.4415e-13 3.7452e-32)
(650 5.94777e-14 2.20954e-17)
(650 1.06069e-13 -2.26756e-17)
(650 1.00835e-13 0)
(650 -3.23326e-09 8.90469e-18)
(650 2.03958e-13 0)
(650 1.53286e-08 -3.80664e-17)
(650 1.27665e-13 0)
(650 -6.8216e-14 -2.27483e-18)
(650 9.48411e-14 0)
(630.71 -141.816 0)
(681.375 -87.1946 2.35541e-17)
(605.604 -132.685 2.68295e-17)
(616.515 -73.3384 -1.10133e-17)
(619.257 -45.8281 7.58751e-19)
(640.647 -5.72715 1.72274e-17)
(630.133 -47.9269 4.46233e-17)
(650 -1.03472e-06 6.36737e-25)
(649.757 0.0608331 -2.127e-17)
(650 4.85877e-05 3.42781e-17)
(650 3.6254e-09 -6.86993e-18)
(650 -7.50749e-08 1.39058e-18)
(645.912 -1.8529 0)
(650 4.3775e-13 -1.87243e-17)
(650 -8.74131e-08 4.16738e-17)
(616.398 8.92449 -9.2542e-18)
(649.991 0.00225846 7.73829e-18)
(650 5.54839e-07 1.736e-17)
(650 1.7281e-11 -1.13552e-17)
(650 -8.62886e-15 0)
(650 1.63709e-13 -1.93378e-17)
(650 4.18518e-14 0)
(650 3.47064e-14 5.04645e-21)
(650 5.03384e-14 2.08161e-17)
(650 -8.0492e-14 0)
(650 -3.88863e-13 4.04302e-20)
(650 -5.76753e-10 -2.19678e-17)
(650 -1.4928e-13 5.44348e-32)