/*--------------------------------*- C++ -*----------------------------------*\
  =========                 |
  \\      /  F ield         | OpenFOAM: The Open Source CFD Toolbox
   \\    /   O peration     | Website:  https://openfoam.org
    \\  /    A nd           | Version:  6
     \\/     M anipulation  |
\*---------------------------------------------------------------------------*/
FoamFile
{
    version     2.0;
    format      ascii;
    class       surfaceScalarField;
    location    "0.0005";
    object      phi;
}
// * * * * * * * * * * * * * * * * * * * * * * * * * * * * * * * * * * * * * //

dimensions      [1 0 -1 0 0 0 0];

internalField   nonuniform List<scalar> 
5786
(
0.150621
-4.80171e-15
0.150621
-5.80092e-15
0.150621
-5.93969e-15
0.150621
-1.72085e-15
0.150621
-3.71925e-15
0.150621
-4.19109e-15
0.150621
1.7486e-15
0.150621
-3.27516e-15
0.150621
4.71845e-16
0.150621
8.32667e-15
0.150621
9.52016e-15
0.150621
-1.79579e-14
0.150621
-2.3534e-13
0.150621
-1.4371e-12
0.150621
-6.81616e-12
0.150621
-2.66167e-11
0.150621
-1.69158e-10
0.150621
-1.01642e-09
0.150621
-9.16232e-10
0.150621
-3.96629e-10
0.150621
-5.63746e-11
0.150621
-8.06349e-12
0.150621
-1.20068e-12
0.150621
-1.07664e-13
0.150621
5.14866e-14
0.150621
7.52731e-14
0.150621
8.06022e-14
0.150621
7.55507e-14
0.150621
2.41751e-14
0.150621
-2.45359e-14
0.150621
-9.4369e-16
0.150621
9.77551e-14
0.150621
1.84186e-13
0.150621
3.88717e-13
0.150621
8.74245e-13
0.150621
2.09166e-12
0.150621
5.12088e-12
0.150621
1.24148e-11
0.150621
3.02287e-11
0.150621
7.25009e-11
0.150621
1.76873e-10
0.150621
4.23727e-10
0.150621
9.62617e-10
0.150621
2.2325e-09
0.150621
4.80761e-09
0.150621
1.07121e-08
0.150621
2.32377e-08
0.150621
3.81902e-08
0.150621
5.77165e-08
8.36478e-08
0.150621
-3.33067e-15
0.150621
-4.27436e-15
0.150621
-7.29972e-15
0.150621
-4.60743e-15
0.150621
-3.83027e-15
0.150621
-4.02456e-15
0.150621
-1.66533e-15
0.150621
-1.55431e-15
0.150621
3.88578e-16
0.150621
7.29972e-15
0.150621
8.77076e-15
0.150621
-1.46827e-14
0.150621
-2.35589e-13
0.150621
-1.53516e-12
0.150621
-7.2953e-12
0.150621
-2.39262e-11
0.150621
-2.12506e-10
0.150621
-1.62661e-09
0.150621
-1.39143e-09
0.150621
-4.96542e-10
0.150621
-7.32642e-11
0.150621
-1.09169e-11
0.150621
-1.67785e-12
0.150621
-1.80023e-13
0.150621
5.36238e-14
0.150621
8.58202e-14
0.150621
9.60343e-14
0.150621
9.42302e-14
0.150621
4.56302e-14
0.150621
-2.83662e-14
0.150621
-3.9968e-15
0.150621
1.16046e-13
0.150621
2.11359e-13
0.150621
4.32293e-13
0.150621
9.33031e-13
0.150621
2.20898e-12
0.150621
5.35941e-12
0.150621
1.27632e-11
0.150621
3.08167e-11
0.150621
7.27698e-11
0.150621
1.79146e-10
0.150621
4.32108e-10
0.150621
9.65855e-10
0.150621
2.26167e-09
0.150621
4.80659e-09
0.150621
1.08544e-08
0.150621
2.40117e-08
0.150621
3.74262e-08
0.150621
5.62851e-08
8.06895e-08
0.150621
-4.88498e-15
0.150621
-4.91274e-15
0.150621
-6.05072e-15
0.150621
-3.08087e-15
0.150621
-3.66374e-15
0.150621
-3.69149e-15
0.150621
-7.99361e-15
0.150621
-2.30371e-15
0.150621
-8.32667e-16
0.150621
8.9373e-15
0.150621
1.86517e-14
0.150621
-7.91034e-15
0.150621
-2.39531e-13
0.150621
-1.67116e-12
0.150621
-7.61952e-12
0.150621
-1.5728e-11
0.150621
-2.68597e-10
0.150621
-2.61522e-09
0.150621
-2.11474e-09
0.150621
-6.23542e-10
0.150621
-9.48269e-11
0.150621
-1.47752e-11
0.150621
-2.35462e-12
0.150621
-2.81941e-13
0.150621
4.24383e-14
0.150621
9.52849e-14
0.150621
1.05471e-13
0.150621
1.12438e-13
0.150621
7.02771e-14
0.150621
-1.99007e-14
0.150621
-1.05749e-14
0.150621
1.36058e-13
0.150621
2.38476e-13
0.150621
4.82059e-13
0.150621
9.99284e-13
0.150621
2.32545e-12
0.150621
5.62753e-12
0.150621
1.31229e-11
0.150621
3.14199e-11
0.150621
7.3131e-11
0.150621
1.81796e-10
0.150621
4.42243e-10
0.150621
9.73816e-10
0.150621
2.27779e-09
0.150621
4.8414e-09
0.150621
1.09911e-08
0.150621
2.48131e-08
0.150621
3.66777e-08
0.150621
5.51585e-08
7.7805e-08
0.150621
-3.05311e-16
0.150621
-6.96665e-15
0.150621
-6.88338e-15
0.150621
-5.63438e-15
0.150621
-2.83107e-15
0.150621
-5.55112e-16
0.150621
-2.83107e-15
0.150621
-4.08007e-15
0.150621
-5.27356e-16
0.150621
1.74305e-14
0.150621
2.72837e-14
0.150621
-1.30451e-15
0.150621
-2.46914e-13
0.150621
-1.81397e-12
0.150621
-7.03421e-12
0.150621
3.31232e-12
0.150621
-3.31076e-10
0.150621
-4.2372e-09
0.150621
-3.24243e-09
0.150621
-7.59879e-10
0.150621
-1.22296e-10
0.150621
-1.99319e-11
0.150621
-3.32179e-12
0.150621
-4.32182e-13
0.150621
3.60822e-14
0.150621
9.76441e-14
0.150621
1.18461e-13
0.150621
1.31506e-13
0.150621
9.4369e-14
0.150621
-2.10942e-15
0.150621
-2.04559e-14
0.150621
1.39083e-13
0.150621
2.76501e-13
0.150621
5.45036e-13
0.150621
1.073e-12
0.150621
2.42362e-12
0.150621
5.94935e-12
0.150621
1.35935e-11
0.150621
3.20975e-11
0.150621
7.37998e-11
0.150621
1.84914e-10
0.150621
4.54643e-10
0.150621
9.87356e-10
0.150621
2.28407e-09
0.150621
4.90647e-09
0.150621
1.11341e-08
0.150621
2.56197e-08
0.150621
3.59618e-08
0.150621
5.41721e-08
7.5283e-08
0.150621
-3.19686e-15
0.150621
-4.92711e-15
0.150621
-4.7838e-15
0.150621
-4.56224e-15
0.150621
-4.16334e-15
0.150621
-5.76622e-15
0.150621
-2.13715e-15
0.150621
-3.09471e-15
0.150621
-1.55434e-15
0.150621
2.26418e-14
0.150621
4.52028e-14
0.150621
5.3702e-14
0.150621
-3.97526e-14
0.150621
-1.42589e-12
0.150621
-2.22092e-12
0.150621
9.52038e-11
0.150621
-2.57555e-10
0.150621
-7.64379e-09
0.150621
-4.76032e-09
0.150621
-9.56267e-10
0.150621
-1.58822e-10
0.150621
-2.67673e-11
0.150621
-4.72621e-12
0.150621
-6.5752e-13
0.150621
1.4222e-14
0.150621
1.02932e-13
0.150621
1.26522e-13
0.150621
1.53192e-13
0.150621
1.13306e-13
0.150621
3.26254e-14
0.150621
-5.75175e-14
0.150621
1.26761e-13
0.150621
3.30371e-13
0.150621
5.85338e-13
0.150621
1.09745e-12
0.150621
2.32099e-12
0.150621
6.25047e-12
0.150621
1.34118e-11
0.150621
3.1082e-11
0.150621
6.9928e-11
0.150621
1.79114e-10
0.150621
4.65057e-10
0.150621
9.89142e-10
0.150621
2.24186e-09
0.150621
5.06464e-09
0.150621
1.11888e-08
0.150621
2.6573e-08
0.150621
3.52898e-08
0.150621
5.31972e-08
7.33636e-08
-0.00476506
-0.0102509
0.0260051
-0.0209478
0.0308775
-0.0235558
0.00244057
-0.0506678
0.0142418
-0.0641875
-0.0274028
-0.256221
0.148455
-0.395338
0.216452
-0.364874
0.0380153
-0.379397
-0.0741853
-0.498487
0.0851921
-0.548033
0.0345033
-0.312134
-0.24775
-0.071004
-0.25205
0.0369532
-0.144548
-0.0402887
0.0444331
-0.0289048
0.00285961
0.0300226
-0.0383561
0.0534829
-0.0161814
-0.0182601
-0.0632702
0.0437887
-0.114541
0.0589938
-0.212693
0.194605
-0.302292
0.403981
-0.311767
0.065804
-0.530741
0.0720836
-0.669368
0.205986
-0.513445
-0.133309
-0.185541
-0.586001
0.453822
-0.905533
0.00921266
0.264863
-0.0272525
-0.0356301
-0.0427279
0.0273969
0.0503573
-0.0281018
0.0501782
-0.0252933
-0.0142488
-0.114989
0.102139
-0.145209
0.114758
-0.234479
0.24445
-0.222923
0.442852
-0.283552
0.130221
-0.534645
0.269273
-0.505517
0.158993
-0.436884
-0.21375
-0.267743
-0.76604
-0.0896424
-1.09894
0.00340046
0.144774
-0.0126773
-0.0348445
-0.0702633
0.03967
0.0942332
-0.0438779
0.0414295
-0.0423751
0.00704222
-0.146505
0.162347
-0.185634
0.168223
-0.255781
0.296383
-0.246043
0.411788
-0.284497
0.157319
-0.348751
0.304366
-0.349367
0.152858
-0.306458
-0.262744
-0.307888
-0.778089
-0.0637611
-1.3622
0.0150271
0.0269022
0.0204262
-0.0359549
-0.0971472
-0.00199494
0.170757
-0.0757236
0.0350501
-0.0516069
0.0124602
-0.137898
0.208237
-0.174864
0.209141
-0.287299
0.403776
-0.282824
0.391654
-0.275127
0.136025
-0.290398
0.304714
-0.287006
0.149642
-0.267979
-0.282502
-0.398163
-0.660623
-0.0679643
-1.7175
0.0569647
-0.184657
-0.0381963
0.0946878
-0.0778871
0.0930896
0.0289506
-0.139017
0.355932
-0.401892
0.525662
-0.243224
0.405292
0.0210719
0.358037
0.078421
0.235843
0.0944414
0.204638
0.00223304
0.269706
0.0183116
0.1052
0.235846
0.0400148
0.0886701
0.0300178
0.00838903
0.00550564
0.0250007
-0.0156594
0.00847324
-0.00756626
-0.0780755
0.101523
-0.10708
-0.164816
0.272894
-0.828848
0.559551
-0.577846
0.61453
-0.082574
0.371166
0.262368
0.250164
0.238913
0.218165
-0.0106406
0.263859
0.0488903
0.078258
0.490176
0.0631567
0.119956
0.038423
0.0154921
0.00620779
0.0582847
-0.00168839
0.0149068
0.0044763
-0.0828449
0.108466
-0.00986931
-0.30683
0.248801
-1.12725
0.395995
-0.754827
0.451065
-0.208197
0.392234
0.246858
0.304382
0.345138
0.213152
0.071691
0.242341
0.109957
0.0890464
0.705099
0.0822726
0.164532
0.0217849
0.0473566
0.00472305
0.0722696
-0.011921
0.0352781
0.0222076
-0.107358
0.134496
0.0112516
-0.497958
0.276557
-1.44239
0.344558
-0.842483
0.345503
-0.272338
0.335137
0.174347
0.311437
0.401477
0.225085
0.175248
0.241633
0.244306
0.195864
0.588249
0.150844
0.24683
0.0283905
0.142459
0.00777367
0.083833
-0.0131656
0.0583777
0.0891886
-0.146073
0.209807
0.0391901
-0.713364
0.459779
-1.90435
0.344607
-0.747621
0.365968
-0.348165
0.343545
0.161403
0.266782
0.498928
0.231093
0.218464
0.159608
0.45326
0.228437
0.368251
0.158156
0.342315
0.0404867
0.211253
0.0118935
0.103533
-0.0100876
0.0866332
0.0605184
-0.150621
1.49636e-07
-0.150621
1.04402e-07
-0.150621
8.2757e-08
-0.150621
4.907e-08
-0.150621
2.26061e-08
-0.150621
9.21598e-09
-0.150621
3.9313e-09
-0.150621
1.54224e-09
-0.150621
6.27508e-10
-0.150621
2.53825e-10
-0.150621
1.02077e-10
-0.150621
4.00378e-11
-0.150621
1.54647e-11
-0.150621
5.83292e-12
-0.150621
2.32064e-12
-0.150621
9.75747e-13
-0.150621
3.74534e-13
-0.150621
1.36086e-13
-0.150621
1.49047e-14
-0.150621
-1.99563e-14
-0.150621
-1.83464e-14
-0.150621
2.55629e-14
-0.150621
4.33542e-14
-0.150621
4.54081e-14
-0.150621
3.72202e-14
-0.150621
-9.57567e-14
-0.150621
-8.51319e-13
-0.150621
-4.69894e-12
-0.150621
-3.18942e-11
-0.150621
-1.92968e-10
-0.150621
-1.06555e-09
-0.150621
-3.66931e-09
-0.150621
-4.59042e-09
-0.150621
-1.54083e-09
-0.150621
-5.71901e-10
-0.150621
-1.68128e-10
-0.150621
-4.04565e-11
-0.150621
-8.49654e-12
-0.150621
-1.52811e-12
-0.150621
-2.00923e-13
-0.150621
-4.996e-15
-0.150621
5.4956e-15
-0.150621
-1.66533e-16
-0.150621
1.08247e-15
-0.150621
-4.91274e-15
-0.150621
-4.88498e-15
-0.150621
-5.93969e-15
-0.150621
-7.91034e-15
-0.150621
-6.10623e-15
-4.4964e-15
-0.150621
1.45287e-07
-0.150621
1.02245e-07
-0.150621
8.19891e-08
-0.150621
5.06807e-08
-0.150621
2.33622e-08
-0.150621
9.15139e-09
-0.150621
3.92651e-09
-0.150621
1.49814e-09
-0.150621
6.17293e-10
-0.150621
2.53088e-10
-0.150621
1.02752e-10
-0.150621
4.02745e-11
-0.150621
1.55534e-11
-0.150621
5.78165e-12
-0.150621
2.35553e-12
-0.150621
1.03936e-12
-0.150621
4.00457e-13
-0.150621
1.54016e-13
-0.150621
2.14828e-14
-0.150621
-1.29341e-14
-0.150621
-9.32587e-15
-0.150621
3.01703e-14
-0.150621
4.92939e-14
-0.150621
5.25691e-14
-0.150621
4.14946e-14
-0.150621
-1.98147e-13
-0.150621
-1.45756e-12
-0.150621
-7.10962e-12
-0.150621
-4.68664e-11
-0.150621
-2.66128e-10
-0.150621
-1.32157e-09
-0.150621
-4.57944e-09
-0.150621
-5.90172e-09
-0.150621
-1.84547e-09
-0.150621
-7.3212e-10
-0.150621
-2.09572e-10
-0.150621
-4.76663e-11
-0.150621
-9.5054e-12
-0.150621
-1.62967e-12
-0.150621
-1.99701e-13
-0.150621
1.02696e-15
-0.150621
1.31839e-14
-0.150621
3.05311e-15
-0.150621
-1.91513e-15
-0.150621
-5.60663e-15
-0.150621
-1.13798e-15
-0.150621
-5.2458e-15
-0.150621
-7.35523e-15
-0.150621
-7.38298e-15
-1.83187e-15
-0.150621
1.40181e-07
-0.150621
1.00197e-07
-0.150621
8.08829e-08
-0.150621
5.223e-08
-0.150621
2.40219e-08
-0.150621
9.13749e-09
-0.150621
3.90801e-09
-0.150621
1.45621e-09
-0.150621
6.10819e-10
-0.150621
2.54504e-10
-0.150621
1.03923e-10
-0.150621
4.06016e-11
-0.150621
1.5649e-11
-0.150621
5.74571e-12
-0.150621
2.41526e-12
-0.150621
1.11125e-12
-0.150621
4.30295e-13
-0.150621
1.66311e-13
-0.150621
2.56739e-14
-0.150621
-4.4964e-15
-0.150621
5.05151e-15
-0.150621
4.32432e-14
-0.150621
5.8481e-14
-0.150621
5.50116e-14
-0.150621
3.64986e-14
-0.150621
-3.75311e-13
-0.150621
-2.47738e-12
-0.150621
-1.07884e-11
-0.150621
-6.90023e-11
-0.150621
-3.68031e-10
-0.150621
-1.67134e-09
-0.150621
-5.64263e-09
-0.150621
-7.35202e-09
-0.150621
-2.15879e-09
-0.150621
-9.48588e-10
-0.150621
-2.65141e-10
-0.150621
-5.74794e-11
-0.150621
-1.094e-11
-0.150621
-1.8025e-12
-0.150621
-2.02061e-13
-0.150621
9.99201e-15
-0.150621
1.66256e-14
-0.150621
1.28786e-14
-0.150621
3.4972e-15
-0.150621
-1.77636e-15
-0.150621
-3.9968e-15
-0.150621
-5.10703e-15
-0.150621
-5.52336e-15
-0.150621
-2.66454e-15
9.15934e-16
-0.150621
1.33977e-07
-0.150621
9.86178e-08
-0.150621
7.93629e-08
-0.150621
5.35458e-08
-0.150621
2.4619e-08
-0.150621
9.16627e-09
-0.150621
3.88577e-09
-0.150621
1.41364e-09
-0.150621
6.09809e-10
-0.150621
2.58907e-10
-0.150621
1.05823e-10
-0.150621
4.10552e-11
-0.150621
1.57559e-11
-0.150621
5.73733e-12
-0.150621
2.50569e-12
-0.150621
1.20007e-12
-0.150621
4.62436e-13
-0.150621
1.72584e-13
-0.150621
3.49998e-14
-0.150621
1.22125e-14
-0.150621
2.51743e-14
-0.150621
5.17086e-14
-0.150621
6.5975e-14
-0.150621
5.95912e-14
-0.150621
2.5896e-14
-0.150621
-6.80844e-13
-0.150621
-4.2297e-12
-0.150621
-1.62946e-11
-0.150621
-1.0165e-10
-0.150621
-5.11906e-10
-0.150621
-2.12282e-09
-0.150621
-6.8523e-09
-0.150621
-8.80348e-09
-0.150621
-2.41934e-09
-0.150621
-1.23596e-09
-0.150621
-3.39317e-10
-0.150621
-7.06442e-11
-0.150621
-1.27877e-11
-0.150621
-2.05011e-12
-0.150621
-2.14911e-13
-0.150621
1.2379e-14
-0.150621
1.94289e-14
-0.150621
1.59595e-14
-0.150621
5.93969e-15
-0.150621
-2.10942e-15
-0.150621
-5.66214e-15
-0.150621
-1.06859e-14
-0.150621
-5.10703e-15
-0.150621
-7.02216e-15
-7.21645e-16
-0.150621
1.28042e-07
-0.150621
9.67777e-08
-0.150621
7.74383e-08
-0.150621
5.44978e-08
-0.150621
2.54701e-08
-0.150621
9.03521e-09
-0.150621
3.73986e-09
-0.150621
1.26185e-09
-0.150621
5.74472e-10
-0.150621
2.51426e-10
-0.150621
1.0161e-10
-0.150621
3.82727e-11
-0.150621
1.43375e-11
-0.150621
5.00467e-12
-0.150621
2.41283e-12
-0.150621
1.26973e-12
-0.150621
4.90298e-13
-0.150621
1.73395e-13
-0.150621
4.38792e-14
-0.150621
3.10411e-14
-0.150621
4.66763e-14
-0.150621
6.05699e-14
-0.150621
7.57155e-14
-0.150621
6.29213e-14
-0.150621
1.04893e-14
-0.150621
-1.45011e-12
-0.150621
-8.40374e-12
-0.150621
-2.48735e-11
-0.150621
-1.5775e-10
-0.150621
-7.26132e-10
-0.150621
-2.59501e-09
-0.150621
-8.15396e-09
-0.150621
-1.07104e-08
-0.150621
-1.98637e-09
-0.150621
-1.64155e-09
-0.150621
-4.15874e-10
-0.150621
-7.27264e-11
-0.150621
-1.01836e-11
-0.150621
-1.11229e-12
-0.150621
2.84264e-14
-0.150621
6.68863e-14
-0.150621
3.21318e-14
-0.150621
1.91928e-14
-0.150621
1.30447e-14
-0.150621
-2.80332e-15
-0.150621
-4.81569e-15
-0.150621
-8.61143e-15
-0.150621
-8.74975e-15
-0.150621
-1.00502e-14
-3.88135e-15
7.45574
-6.83741e-15
2.5894
4.86634
4.06428
3.39146
4.04997
3.40577
3.91886
3.53688
7.45574
-6.35726
6.35726
6.39537
-6.39537
-6.50148
6.50148
-6.58921
6.58921
6.53891
-6.53891
6.51654
-6.51654
6.50645
-6.50645
6.5301
-6.5301
6.67243
-6.67243
6.74255
-6.74255
6.73524
-6.73524
6.7262
-6.7262
6.71679
-6.71679
6.71046
-6.71046
6.70926
-6.70926
6.71197
-6.71197
6.71943
-6.71943
6.72515
-6.72515
6.71754
-6.71754
6.70519
-6.70519
6.69427
-6.69427
6.63561
-6.63561
6.4654
-6.4654
6.61361
-6.61361
-7.45574
-2.522
-4.93374
-4.08574
-3.36999
-3.96449
-3.49124
-4.1353
-3.32044
-7.45574
-2.22301e-07
6.66983
-6.66983
-1.23651e-07
6.79068
-6.79068
-9.14088e-09
-6.64684
6.64684
-1.67472e-10
-6.69619
6.69619
-7.87858e-12
-6.70645
6.70645
-5.11752e-13
-6.70564
6.70564
-3.16067e-13
-6.69664
6.69664
-1.931e-13
-6.69532
6.69532
-2.70377e-12
-6.70649
6.70649
1.93922e-06
-6.70422
6.71735
-0.37395
-78.6153
25.6685
-0.109532
-4.23601
9.13675
0.460174
-4.04239
4.00495
-1.76909
-37.6218
64.962
0.680783
-2.77268
3.77881
-0.00416452
-11.1885
10.1399
0.0156846
-2.65926
2.99316
-0.0284083
-3.3622
3.96587
-0.237092
-0.785069
0.425179
0.475453
-1.53932
0.237393
-0.520982
-0.547213
-0.0214026
0.809372
-0.354869
0.132684
0.28442
-0.55573
0.620409
-0.0707211
0.140402
0.0380105
-0.437775
2.06671
1.26675
-3.33358
0.614329
-0.480878
-0.658401
0.833854
1.18266
-0.963338
1.51074
-1.17887
1.86942
-1.40273
2.05544
-1.94705
3.36938
-3.10507
3.39115
-3.2385
1.91389
-2.20408
1.39706
-2.10487
1.52653
-3.32411
-0.00427395
-0.243504
0.0432741
-0.0397521
-0.0587333
-0.13443
0.862139
-1.44615
1.44782
-0.000216528
-1.81253
1.81252
2.19873e-06
2.28517
-2.28517
-6.10341e-09
2.80432
-2.80432
-3.97123e-10
-3.55054
3.55054
3.31995e-14
-4.50692
4.50692
9.71467e-13
-5.72963
5.72963
1.94682e-14
-6.53303
6.53303
-5.64781e-15
1.09848
-9.97773
-0.785903
-0.022821
-4.11511
6.70451
3.34062
7.4049
4.06631
3.38942
7.45777
7.43939
3.40908
4.04666
3.07862
4.37712
6.64291
-6.64291
6.38768
-6.38768
6.57634
-6.57634
-6.56587
6.56587
-6.52339
6.52339
-6.5139
6.5139
-6.50329
6.50329
-6.59554
6.59554
-6.72297
6.72297
-6.74563
6.74563
-6.73434
6.73434
-6.72221
6.72221
-6.71845
6.71845
-6.71287
6.71287
-6.71174
6.71174
-6.72131
6.72131
-6.72169
6.72169
-6.71732
6.71732
-6.71265
6.71265
-6.70677
6.70677
-6.67597
6.67597
-6.55698
6.55698
-6.4767
6.4767
-0.0128781
-6.19075
6.19075
-4.46275
-2.99299
-3.51308
-3.94265
-3.45344
-4.0023
-0.113794
-2.50716
-4.94858
-7.02461
0.35478
-7.02461
-4.37057e-08
-0.0562082
-0.233937
6.66492
-6.66492
-1.22e-09
6.67748
-6.67748
-1.88808e-11
6.70697
-6.70697
-1.79412e-12
6.70945
-6.70945
-4.54241e-13
6.69814
-6.69814
8.57561e-14
6.69541
-6.69541
-3.16894e-13
6.69771
-6.69771
-4.63595e-09
6.70728
-6.70679
0.000362558
6.74881
-6.70452
-0.510649
50.6014
-32.5733
0.690002
3.75278
-4.12443
-0.168188
3.98436
-18.5242
-1.62721
10.0126
-5.76912
0.24725
3.02168
-13.1664
-0.0887855
10.0247
-9.66323
0.0047892
2.91382
-6.08641
-0.152958
2.99581
-3.58919
0.150141
0.108258
-0.279082
0.328844
4.15287
-0.0794891
-4.00814
0.33561
-0.803848
0.44112
0.0701306
-0.745235
0.781338
0.554272
0.578586
0.383034
0.609475
0.176844
0.532558
0.705002
0.621222
1.36187
0.302609
-1.32072
-0.831042
-0.662819
-3.60263
1.27584
-1.28788
0.012652
1.62575
-1.62584
2.81833e-05
-2.03818
2.03818
7.32064e-08
0.246989
-2.59944
2.59944
-2.45645e-09
0.204882
3.07029
-3.07029
-3.85453e-11
3.99718
-3.99718
3.47134e-13
5.08862
-5.08862
4.74206e-13
6.40825
-6.40825
1.42986e-14
0.922704
7.32793
7.45242
6.6155
0.00768167
-0.0748586
0.0233462
0.015514
0.00263587
0.00316304
-0.0654446
-0.0505366
-0.00308779
0.000903724
0.00399145
-0.00165683
-0.00240994
-0.00248525
-0.0093385
-0.00225931
0.00783229
0.00489518
-0.00158152
0.0183004
0.0786241
-0.0112966
0.422868
-7.59883
-7.41793
-6.64246
-0.125761
0.0306363
0.0107845
0.00299736
-0.00749339
-0.00122756
0.00238734
0.000910798
0.000568233
0.764968
0.243125
-0.000922797
0.219109
-2.89406
-0.302547
-0.770225
-1.04921
-0.664048
1.48905
-0.272887
-0.173563
-0.602316
2.66882
1.42999
0.179361
0.225651
0.314271
0.265966
0.446636
0.581706
0.678623
0.00685325
0.00745574
-0.0268105
-0.0768937
-0.0195811
0.0103928
0.00813353
0.00542235
0.00798291
0.0036149
-0.000225931
0.00188276
-0.00346428
-0.000225931
0.00745574
0.0125015
0.0403664
0.0915775
-0.136914
-7.83274
-7.4339
-7.32274
-0.00381071
-0.00150621
-9.03726e-05
0.00878119
0.00419417
0.0153944
3.47422
0.0355955
-0.0506909
-0.0948638
-0.48505
-0.634948
-0.941004
-2.11671
0.174533
0.0373276
-0.570173
-0.19855
0.247546
0.0269611
-0.285653
-7.92673
-0.000519642
0.0187071
-0.0180745
0.124782
0.641005
0.509739
0.186691
0.171654
0.480255
3.70844
3.69646
4.53098
2.08452
5.4756
3.86599
3.58644
6.22449
-6.2168
-4.16595
-3.76078
-3.78699
-6.53401
6.56097
6.56647
-6.64133
6.552
-6.67776
6.60141
-6.57807
0.0674029
-4.24375
-3.35508
-6.51609
6.51872
6.49267
-6.4895
6.50161
-6.56706
-6.75993
6.70934
6.74473
-6.74782
6.73215
-6.73125
-6.72123
6.72523
6.7195
-6.72116
6.71114
-6.71355
6.71528
-6.71777
6.71604
-6.72538
6.72869
-6.73095
-6.72937
6.7372
-6.71604
6.72093
6.70783
-6.70941
6.71543
-6.69713
-6.60684
6.68546
-6.35379
6.3425
-4.34112
-3.49162
-8.50707
-7.73536
-6.63335
6.62047
-0.0668757
0.0423998
6.71787
-6.71839
-5.73448
-3.73035
-3.68758
-2.14484
-4.49762
6.71163
-6.71544
-6.52038
6.40659
-0.295895
-0.234743
-2.8213
2.83994
-7.6355
7.76028
-6.70861
6.7194
0.00926319
-6.71449
6.71749
-0.0028618
-6.70471
6.72342
0.0146855
-6.70689
6.70539
6.70488
-6.70497
-6.70345
6.71223
-6.71776
6.72064
-6.70377
6.71287
-6.54735
6.84146
-12.6358
11.5784
-5.40106
11.5087
-12.1774
3.57276
-5.46864
6.96834
4.6604
-6.07661
-4.90591
3.09822
3.18359
-5.40886
5.22389
-5.16896
-1.45787
2.84922
0.967369
-1.11244
-0.504836
0.209302
0.168828
6.40342
-6.15588
0.186619
1.63966
-1.0382
-0.658165
1.14998
-1.23154
1.10683
-1.22383
0.461683
0.638486
2.49324
-2.24626
1.74001
-1.56067
3.75158
-3.27132
-2.0109
2.23655
0.482348
-1.34662
1.5243
0.393826
-3.09661
3.36257
0.654968
-2.84701
3.0519
0.51556
5.30295
-4.72124
-1.78659
1.97329
0.449954
6.65397
-5.97535
-4.20914
4.71888
1.09381
6.51985
-6.513
0.00376552
-5.26834
5.90934
1.38564
5.78904
1.69427
-1.14343
-1.97535
2.63261
3.2172
-2.57593
3.22365
-1.85967
1.63754
-1.28465
0.230774
-1.56923
-1.24027
0.566959
0.24041
-3.83099
-0.996412
-0.941751
-6.90077
6.66683
-0.348763
3.60037
3.72757
7.46636
8.25855
-6.6698
6.70043
0.0536211
7.56012
-7.54777
-7.87932
0.668081
-0.603707
0.248503
0.424406
-1.84646
6.7308
0.00135547
6.73893
3.68735
3.75204
7.27379
0.289325
-7.52454
6.73976
0.00496787
6.75015
6.51044
0.0505333
6.52595
-0.857711
-0.000903726
1.1881
7.27446
-6.50795
6.51541
-6.49349
6.46668
-6.6812
6.60421
6.74879
-6.76838
0.0189027
0.0176979
-6.72681
6.73223
-6.71905
6.72703
-6.71408
6.71769
-6.71122
6.71099
-6.72809
6.72997
6.72289
-6.72635
6.71913
-6.71935
-6.71476
6.72221
-6.71024
6.72274
6.70956
-6.66919
6.57543
-6.48386
6.37345
-6.51036
-7.1249
-0.484237
-0.179663
3.67139
-7.40174
-3.65135
-3.9669
-3.46699
-8.14897
-7.32199
0.0107694
-7.15457
-0.000828509
1.78493
6.59025
-6.60833
-6.69575
-0.0111459
-6.69698
6.71047
-6.71797
0.0079076
-0.00497049
6.70482
-6.70244
6.71595
-6.71504
6.71603
-6.71921
6.73092
-6.671
10.7567
-12.178
13.4155
-13.0093
3.47532
-2.934
8.51873
-6.67425
6.20228
-2.30268
5.47707
3.7033
-4.17583
-5.53447
2.68891
-5.65374
5.77465
-2.33663
4.13882
-0.512667
0.38601
-0.836195
0.00308773
-0.0064767
0.774477
4.85805
1.11859
0.412557
-0.0875108
0.0129534
3.8934
3.56437
7.60184
7.31641
2.52515
0.526752
-0.00158152
2.83942
-3.74248
4.18911
8.55452
0.9764
1.23353
1.54373
0.657001
-0.216291
-1.06592
1.57881
-1.01954
0.742574
-0.751448
-0.601839
-0.94007
-1.56649
0.221639
-0.826505
0.917794
0.59316
-0.364532
0.23915
-1.48692
-1.59643
-1.3854
-0.99002
-0.0825727
0.0698559
0.133255
0.00712045
0.0102592
0.102723
-0.00203123
0.0125015
-0.000150621
-0.167867
0.201606
0.0462406
-0.00240994
0.00617546
0.0178486
0.00233462
-0.0120497
0.00406677
-0.00293711
0.000451863
-0.000979036
0.0256056
-0.0143843
0.0128028
-7.53105e-05
0.000964259
-0.156081
-0.100392
0.0259067
-0.0591222
0.0134806
0.0110706
-0.420048
-0.0230726
0.0715825
0.0304354
1.5493e-05
-0.00938823
0.0921047
-0.0125768
0.00557304
0.00979036
-0.837012
-0.969573
6.72974
-6.74232
6.78608
-6.73245
-6.7494
6.7671
-6.7381
6.75158
-6.50728
6.51805
-6.85345
6.7896
-5.56318
7.34812
2.99133
-4.22492
-3.17682
-6.47328
6.37282
6.70102
-6.85677
-0.148701
-6.75415
6.77305
-6.49312
6.54365
3.0122
-2.41904
7.93043
-8.30069
-6.75362
6.75264
-6.74955
6.76062
6.75746
-6.75701
0.0193548
-6.73261
6.74541
-6.73554
6.73961
-6.7384
6.76401
6.75068
-6.76273
-0.00293711
-0.950677
2.13632
6.75475
-6.76122
6.74684
-6.74691
0.0112966
6.75189
-6.74571
0.0192795
6.73908
-6.75347
-0.0236475
6.74232
-6.74473
0.00391614
6.74383
-6.74586
0.734184
-1.5618
-6.58733
6.78894
1.27377
-1.68049
-6.0814
5.91353
-3.21244
-4.10954
1.78242
-1.07303
6.43784
-6.43867
-0.0354677
-2.00145
-6.14752
-6.22637
-7.00523
6.76514
-6.76378
0.0157397
6.77191
-6.76697
0.0176973
-6.74398
6.73901
-0.0142337
-3.89061
-3.26396
-7.10306
-6.44078
6.60428
-6.53687
0.111158
-6.74827
6.75384
-0.00444331
-6.74887
6.74601
-0.00986567
-6.72199
6.72989
3.42891
-6.48926
-6.74066
6.75045
-6.73374
6.74624
0.0201079
-6.67605
6.76815
0.110029
6.80167
-6.69894
0.214334
-6.67399
6.74258
7.00434
-7.08181
-5.15659
6.49072
-6.72813
5.50477
-8.07457
4.3377
-4.1415
5.19321
-0.350206
0.823332
-1.67691
-4.43534
4.09988
-1.73349
6.58176
-6.36012
0.500363
2.15688
-5.18679
2.6327
-3.79982
-4.43798
3.44542
6.74993
-6.74684
0.00421739
-5.70198
5.8886
-6.75158
6.75068
-0.00557297
-4.92463
6.11273
0.429411
6.75196
-6.75354
0.00240972
-5.41776
6.53635
2.84079
0.834365
1.80309
-1.4093
3.8207
-3.16574
1.35914
-0.131643
-3.06316
3.57872
0.757548
-2.77802
3.30477
0.800701
-6.48762
6.40011
0.280532
6.53898
-6.53522
0.0317056
6.70866
-5.32302
1.78403
2.0251
1.43571
-1.14759
0.485159
0.653866
4.93073
-3.95433
-0.510639
1.15157
1.73368
-0.381615
0.449511
-1.46645
4.31324
-3.39545
1.14751
1.53528
-8.85185
8.59349
-1.58596
6.46623
-6.815
-0.538997
-0.414885
-6.66385
5.9124
-0.750318
-2.59467
0.625039
-1.69551
0.841621
-1.09566
0.322945
-0.461358
5.55791
-4.4641
1.60359
1.64862
2.06216
-1.61221
2.3889
-1.90655
6.49935
-6.67693
-0.353483
2.6197
-1.47887
-1.14192
-0.881369
-6.74835
6.75761
0.00233462
-1.02976
0.423451
-0.60292
3.58621
3.68758
-0.968127
0.428818
-0.0138571
4.47736
3.12448
-1.11054
6.75678
-0.00203338
6.77463
3.21531
4.25105
6.80151
7.09184
0.00926032
-6.49877
6.52467
0.0192792
0.00361484
-0.303776
0.000677794
-6.8047
6.80542
6.74624
-6.74917
-0.944148
1.54955
0.512619
-0.0188332
1.04825
-6.7668
6.76913
-0.000677794
-6.725
6.77124
-1.92462
-0.437431
6.69103
-6.75791
0.0135555
0.0860063
0.00557297
6.47587
0.0677794
6.48883
-6.73313
0.0111459
-6.73328
6.73532
-6.74646
6.77719
-6.7625
0.00240994
0.0171708
-0.00700387
-6.35918
0.00824489
-6.4648
6.74804
-6.75742
-0.0152004
0.00218357
6.30038
-6.14107
4.29582
-4.89797
-7.68181
7.4871
-0.0346875
-0.945236
0.0447344
-1.53708
6.46535
-1.68646
2.84432
0.0277896
-0.88528
0.279602
6.50389
-0.615287
6.20799
-0.578331
-0.98142
1.55684
1.46241
-6.61279
6.65519
0.0782476
0.118313
1.24885
-0.679524
0.562307
0.634236
1.03916
1.96207
0.552686
1.02306
-0.0141584
0.254196
-1.25672
-1.21633
-0.780655
0.77669
6.55969
-6.79444
-0.198217
-4.71444
-3.02093
-7.30911
-7.13047
-1.542
-0.0064863
-0.00967529
-0.00581511
-1.49545
0.0390108
0.0382822
0.0079076
0.0722981
-0.00489518
-0.0463913
-0.0165683
-0.0137187
-0.172894
-0.00409908
-1.81556
0.844728
6.81748
-6.82238
-6.78721
6.82622
-6.81432
6.82223
-6.78404
6.79534
-6.81424
6.81131
6.75628
-6.67843
-6.84879
6.88542
6.80347
-6.7979
7.46869
2.31725
-1.54056
-6.79359
6.8092
-6.49602
6.51533
-7.49738
1.27101
-8.03638
-6.79745
6.8168
6.7796
-6.79617
6.81338
-6.8042
0.0197086
-6.51077
6.21716
-6.77169
6.78886
0.031781
5.08552
-6.44975
-1.79876
2.31138
0.518492
6.88811
-6.90489
0.0471016
6.80061
-6.80129
0.0165683
-6.78472
6.804
6.7851
-6.80874
-0.0291452
6.80061
-6.79669
0.0134053
-1.21898
0.217307
-6.55804
6.98685
-3.60664
2.84738
10.5122
-2.94014
-6.42323
6.37684
2.8047
-4.18769
-6.78239
6.77538
-0.00278649
6.89133
-6.99095
-0.00909046
6.79391
-6.79323
-0.00278649
6.81657
-6.80049
0.0118528
-6.80272
6.78849
-0.0273377
5.42837
-6.16405
6.80242
-6.80686
-0.90849
1.74605
-6.8037
6.79383
-0.0152127
2.60459
-4.72051
-1.90972
-1.35859
6.79941
-6.797
-0.00188276
6.80069
-6.79707
0.00323816
6.7857
-6.79956
-0.023045
0.585945
-1.60526
-6.79781
6.80052
-0.00746057
6.47181
-6.40403
0.0485752
6.91516
-6.80513
6.97044
-6.7561
0.4124
6.60972
-6.58609
6.80749
-12.014
-13.5348
15.5677
0.133796
10.3465
-7.10598
-6.80182
6.82961
-3.61632
2.88236
-0.238667
1.971
-1.00136
-6.67257
6.67686
-0.00180213
-6.80212
6.84685
0.0153633
4.04711
3.2693
7.17159
6.95688
6.8159
-6.81349
0.0188256
3.79136
-2.99065
-6.70941
6.98994
0.205748
6.49252
-6.46081
-0.00346461
-6.77854
6.78969
0.0103175
6.81409
-6.81612
0.0122756
2.1018
-1.0848
6.6627
-7.00968
-0.315904
6.8031
-6.81725
-0.0112213
-6.80792
6.80234
-0.0140831
6.79918
-6.79496
0.0144596
-6.80603
6.80837
-0.00369021
0.906313
-1.84449
-7.11039
5.08073
10.8605
-7.00614
-0.110204
-0.39885
-1.50089
2.05338
0.810498
-6.78894
6.80905
0.0134806
6.22543
-6.25963
-0.281495
6.58884
-6.47768
0.184812
0.0505538
-0.0140077
-4.81189
6.59592
1.6743
-3.21487
0.0575852
-1.26677
1.03303
2.75832
-1.03602
0.0107694
-0.0064767
-5.16976
0.0198067
-1.69381
2.46054
-0.00594953
-2.53097
-0.038606
-1.18019
-6.69985
6.77809
-0.825923
0.00610015
0.0111459
-5.99696
-2.4133
-8.02372
6.86206
-6.78977
-0.00711067
3.57815
3.22336
-1.02889
1.53483
2.10922
-3.64405
0.041722
1.05179
-0.083972
-4.13289
5.73647
0.743325
1.3103
1.10565
-6.80598
6.81947
0.0346428
-0.00421739
0.547892
-1.65714
0.985102
0.561617
-1.2665
-6.50181
6.58822
-0.00632612
0.105962
-6.56203
-0.0261087
-6.59663
0.0364503
-0.00799058
-1.26772
1.72596
-0.886896
0.022615
1.13227
1.26661
6.60751
-6.10715
4.04129
-5.21225
-0.00374303
-0.586443
5.77654
-6.39183
-3.82284
-3.28022
2.03193
6.62205
-6.50374
0.14437
2.88206
4.07482
6.46021
-3.94853
0.957874
-3.19098
-5.46212
4.7118
1.1454
-2.59731
0.0137698
6.96057
-4.93547
2.14868
2.53322
6.24557
-4.59695
2.11268
1.99897
0.879702
-2.05433
0.929805
5.64173
-6.05662
-2.39465
0.933323
6.86161
-7.05983
0.161767
-1.76431
0.638515
-2.8132
-1.50879
-2.1405
-3.42821
4.96349
2.30827
-3.07919
-3.66182
-3.46865
-6.25913
-7.29148
0.00314248
-1.76792
0.0059473
-1.69561
0.330649
-1.97654
-3.82344
0.632457
-2.67593
4.45296
2.71863
6.98618
6.79346
-0.898448
2.57275
-6.68058
7.12042
4.33766
-3.30462
8.18804
-6.61696
-6.8778
6.87185
0.274356
-7.29384
6.95531
-6.8575
6.87636
-0.503744
-2.31228
0.61735
-1.56873
6.46491
-7.39189
-0.919136
6.84399
-6.86523
6.753
-6.90014
0.108783
-6.85122
6.86779
-6.85564
6.85446
-0.0108185
-1.87079
0.254404
-6.85875
6.85211
-0.00414844
6.83465
-6.84113
-1.0735
0.351052
4.50183
-2.96701
3.60338
1.37065
-6.84745
6.86086
6.91561
-6.87389
0.885726
-6.51691
6.85347
1.96393
6.5079
-5.01717
-6.51168
2.36918
-6.85077
6.88541
-1.03841
1.54585
3.26834
-6.09079
-6.84622
6.86513
-6.79045
6.73527
0.0367174
0.150519
6.84888
-6.85167
0.0014309
6.88017
-7.12517
0.00894174
6.86184
-6.87585
6.83638
-6.86372
6.85446
-6.84369
0.00278649
-6.85295
6.87276
3.14493
-2.91348
0.497996
-1.5968
-0.832235
-0.886253
6.87118
-6.86003
-6.86255
6.85509
-0.0104087
6.85899
-6.85596
0.00602494
6.83608
-6.85913
6.7173
-6.59376
-6.87128
6.86494
-0.0161916
-6.31178
6.36037
-0.747738
1.82162
-1.99464
0.726557
-1.37712
-6.35477
7.23447
-2.00182
1.11399
-6.69998
6.66762
-0.000421891
6.58531
-6.57052
0.0723584
-1.08478
2.23806
7.28252