/*--------------------------------*- C++ -*----------------------------------*\
  =========                 |
  \\      /  F ield         | OpenFOAM: The Open Source CFD Toolbox
   \\    /   O peration     | Website:  https://openfoam.org
    \\  /    A nd           | Version:  6
     \\/     M anipulation  |
\*---------------------------------------------------------------------------*/
FoamFile
{
    version     2.0;
    format      ascii;
    class       volVectorField;
    location    "0.0005";
    object      U;
}
// * * * * * * * * * * * * * * * * * * * * * * * * * * * * * * * * * * * * * //

dimensions      [0 1 -1 0 0 0 0];

internalField   nonuniform List<vector> 
3704
(
(650 -5.74412e-13 0)
(650 -6.51586e-13 0)
(650 -3.81195e-13 0)
(650 -1.71161e-13 0)
(650 -2.07056e-13 0)
(650 -2.46497e-13 0)
(650 4.72199e-14 0)
(650 -2.06622e-13 0)
(650 5.57767e-14 0)
(650 6.59179e-13 0)
(650 6.47077e-13 0)
(650 -1.10722e-12 0)
(650 -1.70712e-11 0)
(650 -1.05304e-10 0)
(650 -5.03589e-10 0)
(650 -2.05592e-09 0)
(650 -1.18666e-08 0)
(650 -6.44182e-08 0)
(650 -5.95872e-08 0)
(650 -2.82552e-08 0)
(650 -3.99895e-09 0)
(650 -5.59364e-10 0)
(650 -8.17376e-11 0)
(650 -6.19614e-12 0)
(650 4.45175e-12 0)
(650 5.86939e-12 0)
(650 6.09106e-12 0)
(650 5.30834e-12 0)
(650 6.43379e-13 0)
(650 -2.25607e-12 0)
(650 2.86793e-13 0)
(650 7.16603e-12 0)
(650 1.41713e-11 0)
(650 3.04069e-11 0)
(650 6.98425e-11 0)
(650 1.68877e-10 0)
(650 4.17904e-10 0)
(650 1.02744e-09 0)
(650 2.51918e-09 0)
(650 6.09391e-09 0)
(650 1.48589e-08 0)
(650 3.56404e-08 0)
(650 8.18584e-08 0)
(650 1.89896e-07 0)
(650 4.12171e-07 0)
(650 9.15668e-07 0)
(650 1.97668e-06 0)
(650 3.33306e-06 0)
(650 5.08104e-06 0)
(650 7.41925e-06 0)
(650 -3.45927e-13 0)
(650 -3.85049e-13 0)
(650 -5.99108e-13 0)
(650 -2.65758e-13 0)
(650 -3.48014e-13 0)
(650 -3.56711e-13 0)
(650 -4.71301e-15 0)
(650 -2.00811e-13 0)
(650 2.96053e-14 0)
(650 6.34625e-13 0)
(650 7.78858e-13 0)
(650 -1.46266e-12 0)
(650 -2.02102e-11 0)
(650 -1.26778e-10 0)
(650 -6.03872e-10 0)
(650 -2.24687e-09 0)
(650 -1.61441e-08 0)
(650 -1.07758e-07 0)
(650 -9.55062e-08 0)
(650 -3.78585e-08 0)
(650 -5.48378e-09 0)
(650 -7.98395e-10 0)
(650 -1.2042e-10 0)
(650 -1.18944e-11 0)
(650 4.50944e-12 0)
(650 6.95275e-12 0)
(650 7.59399e-12 0)
(650 7.2263e-12 0)
(650 2.86397e-12 0)
(650 -2.33755e-12 0)
(650 -9.39256e-14 0)
(650 9.18161e-12 0)
(650 1.69817e-11 0)
(650 3.51195e-11 0)
(650 7.77803e-11 0)
(650 1.85098e-10 0)
(650 4.50821e-10 0)
(650 1.08521e-09 0)
(650 2.6306e-09 0)
(650 6.26543e-09 0)
(650 1.53433e-08 0)
(650 3.6864e-08 0)
(650 8.30893e-08 0)
(650 1.94059e-07 0)
(650 4.13869e-07 0)
(650 9.30482e-07 0)
(650 2.03779e-06 0)
(650 3.26399e-06 0)
(650 4.92114e-06 0)
(650 7.10969e-06 0)
(650 -3.26187e-13 0)
(650 -3.9038e-13 0)
(650 -5.94705e-13 0)
(650 -3.29995e-13 0)
(650 -3.3654e-13 0)
(650 -3.24838e-13 0)
(650 -4.05726e-13 0)
(650 -1.87005e-13 0)
(650 -1.76471e-14 0)
(650 6.8612e-13 0)
(650 1.14841e-12 0)
(650 -1.14163e-12 0)
(650 -2.1167e-11 0)
(650 -1.40527e-10 0)
(650 -6.56116e-10 0)
(650 -1.93904e-09 0)
(650 -2.10084e-08 0)
(650 -1.76115e-07 0)
(650 -1.47251e-07 0)
(650 -4.80459e-08 0)
(650 -7.18604e-09 0)
(650 -1.09293e-09 0)
(650 -1.70774e-10 0)
(650 -1.93686e-11 0)
(650 4.2402e-12 0)
(650 7.88182e-12 0)
(650 8.74476e-12 0)
(650 8.99234e-12 0)
(650 5.01418e-12 0)
(650 -2.14073e-12 0)
(650 -5.56998e-13 0)
(650 1.09993e-11 0)
(650 1.94654e-11 0)
(650 3.95373e-11 0)
(650 8.38075e-11 0)
(650 1.96883e-10 0)
(650 4.75677e-10 0)
(650 1.12184e-09 0)
(650 2.69693e-09 0)
(650 6.3226e-09 0)
(650 1.5627e-08 0)
(650 3.77998e-08 0)
(650 8.38136e-08 0)
(650 1.9637e-07 0)
(650 4.1609e-07 0)
(650 9.43349e-07 0)
(650 2.10744e-06 0)
(650 3.19805e-06 0)
(650 4.80146e-06 0)
(650 6.8199e-06 0)
(650 -2.38331e-13 0)
(650 -4.84131e-13 0)
(650 -5.61902e-13 0)
(650 -3.83205e-13 0)
(650 -3.0052e-13 0)
(650 -2.09729e-13 0)
(650 -4.51048e-13 0)
(650 -2.58208e-13 0)
(650 -6.04438e-14 0)
(650 1.14067e-12 0)
(650 2.03059e-12 0)
(650 -2.09726e-13 0)
(650 -2.05327e-11 0)
(650 -1.50206e-10 0)
(650 -6.45194e-10 0)
(650 -5.93473e-10 0)
(650 -2.69801e-08 0)
(650 -2.94937e-07 0)
(650 -2.24811e-07 0)
(650 -5.91379e-08 0)
(650 -9.28293e-09 0)
(650 -1.47469e-09 0)
(650 -2.40738e-10 0)
(650 -3.00524e-11 0)
(650 3.68611e-12 0)
(650 8.56733e-12 0)
(650 9.90664e-12 0)
(650 1.07543e-11 0)
(650 7.23774e-12 0)
(650 -8.7917e-13 0)
(650 -1.54622e-12 0)
(650 1.19809e-11 0)
(650 2.24847e-11 0)
(650 4.48357e-11 0)
(650 8.97241e-11 0)
(650 2.05275e-10 0)
(650 5.02464e-10 0)
(650 1.15479e-09 0)
(650 2.74886e-09 0)
(650 6.33952e-09 0)
(650 1.58431e-08 0)
(650 3.88455e-08 0)
(650 8.47509e-08 0)
(650 1.97103e-07 0)
(650 4.21556e-07 0)
(650 9.54992e-07 0)
(650 2.18336e-06 0)
(650 3.13546e-06 0)
(650 4.70403e-06 0)
(650 6.55981e-06 0)
(650 -1.16657e-13 0)
(650 -5.0305e-13 0)
(650 -4.97746e-13 0)
(650 -4.35054e-13 0)
(650 -2.69296e-13 0)
(650 -2.17859e-13 0)
(650 -2.54725e-13 0)
(650 -3.03736e-13 0)
(650 -7.30874e-14 0)
(650 1.74959e-12 0)
(650 3.03583e-12 0)
(650 1.85303e-12 0)
(650 -1.44861e-11 0)
(650 -1.45512e-10 0)
(650 -4.49575e-10 0)
(650 3.15408e-09 0)
(650 -3.15973e-08 0)
(650 -4.81569e-07 0)
(650 -3.27956e-07 0)
(650 -7.23345e-08 0)
(650 -1.18375e-08 0)
(650 -1.95023e-09 0)
(650 -3.32632e-10 0)
(650 -4.47596e-11 0)
(650 2.54558e-12 0)
(650 8.81834e-12 0)
(650 1.07395e-11 0)
(650 1.23228e-11 0)
(650 9.07602e-12 0)
(650 1.25073e-12 0)
(650 -3.13014e-12 0)
(650 1.15761e-11 0)
(650 2.62581e-11 0)
(650 4.85909e-11 0)
(650 9.45927e-11 0)
(650 2.0648e-10 0)
(650 5.28238e-10 0)
(650 1.17433e-09 0)
(650 2.7419e-09 0)
(650 6.25962e-09 0)
(650 1.57784e-08 0)
(650 3.9741e-08 0)
(650 8.5556e-08 0)
(650 1.96036e-07 0)
(650 4.29379e-07 0)
(650 9.63564e-07 0)
(650 2.25337e-06 0)
(650 3.07528e-06 0)
(650 4.62511e-06 0)
(650 6.43945e-06 0)
(73.4274 334.642 2.1318e-19)
(377.048 421.078 2.03242e-19)
(283.204 454.093 -7.21406e-19)
(455.336 242.148 3.39067e-17)
(494.24 298.44 -6.45498e-19)
(556.833 -49.3834 1.24282e-17)
(526.501 -102.203 0)
(517.588 -114.378 -3.84174e-18)
(487.784 -121.048 1.42046e-18)
(384.414 -211.914 7.88624e-17)
(312.791 -205.271 2.9433e-18)
(282.481 -150.991 -9.38022e-17)
(190.6 -80.1956 -7.66788e-17)
(10.1526 -43.835 0)
(13.2861 -149.299 5.74336e-18)
(104.098 358.297 0)
(334.887 438.393 -1.64621e-17)
(291.87 518.694 0)
(487.821 365.842 -2.79976e-17)
(519.578 277.753 -3.64137e-17)
(546.023 -14.8247 -2.015e-17)
(528.577 -68.2793 -1.65232e-17)
(539.089 -60.4332 1.49247e-18)
(479.041 -120.614 3.29113e-17)
(387.493 -221.793 -3.75579e-17)
(346.591 -208.009 -6.79564e-17)
(340.064 -144.946 -2.08133e-18)
(265.707 -79.9283 6.72048e-17)
(-3.73454 -60.9646 0)
(9.10911 -141.287 5.26176e-18)
(107.458 368.028 0)
(278.127 447.145 1.7006e-17)
(345.523 509.022 -4.3705e-17)
(571.674 390.375 0)
(560.713 264.148 6.28395e-17)
(546.57 38.8127 3.52934e-17)
(539.452 -42.3123 1.58114e-17)
(532.216 -64.4079 2.01302e-18)
(465.506 -167.617 -2.95738e-17)
(402.183 -223.064 -6.49212e-17)
(361.652 -187.724 1.30011e-16)
(366.941 -139.38 6.16491e-17)
(311.115 -77.3949 5.64644e-17)
(-15.055 -56.3696 2.07814e-17)
(2.41425 -139.643 -2.49286e-18)
(119.492 365.899 0)
(284.227 453.051 -1.97678e-17)
(393.985 490.302 3.16789e-17)
(615.763 389.292 4.03452e-19)
(599.377 261.687 2.27161e-18)
(554.505 37.8443 -6.96395e-17)
(543.707 -57.9028 2.03196e-17)
(525.562 -79.3129 2.11683e-18)
(461.743 -189.378 -5.55071e-17)
(406.003 -220.147 6.06149e-17)
(373.449 -183.87 -1.19728e-16)
(380.897 -144.169 -7.26251e-19)
(353.691 -87.8304 -2.89885e-19)
(-11.9444 -30.8759 3.92033e-19)
(-8.38749 -139.977 -2.52962e-18)
(154.171 361.033 0)
(322.411 451.284 2.92519e-17)
(443.081 452.007 5.11698e-19)
(638.635 377.875 0)
(631.231 247.362 -3.01782e-17)
(588.184 13.628 6.98364e-17)
(545.358 -78.748 -2.16143e-17)
(514.016 -94.6745 -1.06074e-18)
(461.918 -196.451 7.51598e-17)
(400.724 -220.635 8.06103e-19)
(378.128 -187.311 5.80688e-17)
(385.751 -152.146 -1.17178e-16)
(388.574 -99.4834 -5.08875e-17)
(-12.384 13.6812 -6.79473e-17)
(-26.878 -141.38 4.41253e-18)
(-9.78386 -8.07813 0)
(-19.1589 -121.277 -1.22619e-18)
(210.71 81.7719 -3.08076e-18)
(277.145 167.531 9.01239e-17)
(305.384 218.321 0)
(379.141 227.135 7.50563e-17)
(487.886 177.096 2.97833e-17)
(577.309 70.2762 -1.5517e-18)
(537.523 70.1806 -6.46605e-19)
(536.217 134.319 5.85107e-20)
(530.119 -107.293 7.12173e-19)
(496.665 -302.124 4.52134e-17)
(553.995 -311.395 -2.79232e-19)
(304.733 -369.139 0)
(-17.2818 371.347 -7.60618e-18)
(-9.31299 9.58406 0)
(-0.409672 -112.875 0)
(269.482 75.6417 -7.07085e-17)
(324.387 151.216 -7.26697e-17)
(334.335 211.53 -1.09259e-18)
(385.24 239.904 4.84741e-18)
(482.474 197.036 3.02284e-17)
(584.507 2.09161 -4.0873e-19)
(542.199 -18.8155 2.8358e-17)
(533.702 109.253 1.77923e-17)
(525.264 -66.4018 0)
(454.789 -379.414 -1.50299e-17)
(522.078 -336.888 2.30876e-17)
(255.121 -390.091 3.8959e-19)
(5.41165 369.684 0)
(-10.5208 23.5209 0)
(20.7244 -121.052 -9.90631e-19)
(308.086 74.6093 9.35544e-19)
(346.243 147.022 -6.33122e-17)
(350.564 192.608 0)
(397.836 247.151 -6.85975e-17)
(467.764 228.966 -9.1951e-17)
(565.591 55.1494 0)
(533.515 -13.775 -1.82462e-17)
(524.596 49.0108 7.18883e-18)
(513.738 -76.3307 -5.64054e-19)
(479.349 -378.685 2.40967e-19)
(470.014 -385.796 -5.57121e-17)
(229.217 -431.303 0)
(40.2801 342.905 0)
(-17.1902 36.8275 0)
(33.2724 -138.345 0)
(338.129 86.7375 6.15177e-17)
(355.967 151.413 6.01927e-17)
(361.246 189.673 6.21833e-17)
(398.216 240.999 -2.83972e-19)
(469.348 244.395 5.63499e-17)
(543.642 113.567 -9.24308e-19)
(530.909 15.6511 2.1069e-17)
(531.146 22.027 -1.85443e-17)
(519.095 -90.9797 1.24132e-18)
(533.485 -341.83 -7.33745e-19)
(490.72 -407.154 2.3187e-17)
(250.728 -433.6 3.45427e-19)
(98.7082 296.001 -6.50108e-18)
(-35.8475 51.3653 0)
(26.2772 -160.638 -9.00681e-19)
(363.492 106.474 8.14831e-19)
(356.586 163.344 -5.85202e-17)
(361.593 198.205 -5.87394e-17)
(395.539 234.809 -1.03122e-18)
(466.583 257.016 2.70179e-17)
(523.324 157.597 7.92052e-19)
(548.574 76.55 -1.62797e-17)
(535.769 34.2468 2.92244e-17)
(564.54 -105.6 2.53694e-17)
(592.836 -323.443 -7.44012e-19)
(532.125 -411.138 -3.04024e-17)
(295.071 -432.815 0)
(183.797 213.909 8.02251e-18)
(650 -1.31609e-05 0)
(650 -9.11683e-06 0)
(650 -7.16942e-06 0)
(650 -4.15621e-06 0)
(650 -1.90832e-06 0)
(650 -7.8765e-07 0)
(650 -3.3449e-07 0)
(650 -1.32147e-07 0)
(650 -5.33093e-08 0)
(650 -2.13626e-08 0)
(650 -8.5312e-09 0)
(650 -3.3417e-09 0)
(650 -1.29014e-09 0)
(650 -4.88256e-10 0)
(650 -1.91427e-10 0)
(650 -7.84493e-11 0)
(650 -2.99391e-11 0)
(650 -1.0591e-11 0)
(650 -1.01311e-12 0)
(650 1.93688e-12 0)
(650 2.28885e-12 0)
(650 -1.50252e-12 0)
(650 -3.06675e-12 0)
(650 -3.5297e-12 0)
(650 -2.99414e-12 0)
(650 4.94198e-12 0)
(650 5.1712e-11 0)
(650 3.05339e-10 0)
(650 2.11376e-09 0)
(650 1.32159e-08 0)
(650 7.59137e-08 0)
(650 2.65516e-07 0)
(650 3.28077e-07 0)
(650 1.12313e-07 0)
(650 4.05205e-08 0)
(650 1.19723e-08 0)
(650 2.91352e-09 0)
(650 6.13763e-10 0)
(650 1.09567e-10 0)
(650 1.39651e-11 0)
(650 1.57245e-13 0)
(650 -2.15873e-13 0)
(650 1.87845e-13 0)
(650 2.00264e-13 0)
(650 3.80624e-13 0)
(650 4.71708e-13 0)
(650 4.18762e-13 0)
(650 6.76179e-13 0)
(650 5.75005e-13 0)
(650 4.06277e-13 0)
(650 -1.27488e-05 0)
(650 -8.92273e-06 0)
(650 -7.11435e-06 0)
(650 -4.29823e-06 0)
(650 -1.98298e-06 0)
(650 -7.90972e-07 0)
(650 -3.39299e-07 0)
(650 -1.31215e-07 0)
(650 -5.36853e-08 0)
(650 -2.1835e-08 0)
(650 -8.82611e-09 0)
(650 -3.4625e-09 0)
(650 -1.33783e-09 0)
(650 -5.01273e-10 0)
(650 -2.01294e-10 0)
(650 -8.66208e-11 0)
(650 -3.32729e-11 0)
(650 -1.25824e-11 0)
(650 -1.5519e-12 0)
(650 1.50974e-12 0)
(650 1.26668e-12 0)
(650 -2.33997e-12 0)
(650 -4.00502e-12 0)
(650 -4.22864e-12 0)
(650 -3.442e-12 0)
(650 1.14182e-11 0)
(650 9.24529e-11 0)
(650 4.87645e-10 0)
(650 3.26368e-09 0)
(650 1.92049e-08 0)
(650 1.0086e-07 0)
(650 3.50053e-07 0)
(650 4.43881e-07 0)
(650 1.44066e-07 0)
(650 5.48331e-08 0)
(650 1.59321e-08 0)
(650 3.7339e-09 0)
(650 7.6577e-10 0)
(650 1.34777e-10 0)
(650 1.71629e-11 0)
(650 1.70428e-13 0)
(650 -8.09348e-13 0)
(650 -1.0904e-13 0)
(650 3.30867e-14 0)
(650 4.66621e-13 0)
(650 2.344e-13 0)
(650 4.7928e-13 0)
(650 6.605e-13 0)
(650 5.54232e-13 0)
(650 2.82277e-13 0)
(650 -1.23019e-05 0)
(650 -8.73511e-06 0)
(650 -7.03661e-06 0)
(650 -4.44466e-06 0)
(650 -2.04723e-06 0)
(650 -7.9012e-07 0)
(650 -3.39117e-07 0)
(650 -1.27982e-07 0)
(650 -5.31897e-08 0)
(650 -2.19826e-08 0)
(650 -8.95886e-09 0)
(650 -3.50837e-09 0)
(650 -1.35393e-09 0)
(650 -5.00559e-10 0)
(650 -2.06884e-10 0)
(650 -9.31792e-11 0)
(650 -3.59619e-11 0)
(650 -1.39614e-11 0)
(650 -2.02265e-12 0)
(650 7.92857e-13 0)
(650 2.05229e-13 0)
(650 -3.19185e-12 0)
(650 -4.69341e-12 0)
(650 -4.67176e-12 0)
(650 -3.47639e-12 0)
(650 2.32151e-11 0)
(650 1.62363e-10 0)
(650 7.51811e-10 0)
(650 4.88217e-09 0)
(650 2.69485e-08 0)
(650 1.28277e-07 0)
(650 4.3971e-07 0)
(650 5.70342e-07 0)
(650 1.74511e-07 0)
(650 7.18413e-08 0)
(650 2.04123e-08 0)
(650 4.56379e-09 0)
(650 8.94766e-10 0)
(650 1.51429e-10 0)
(650 1.80801e-11 0)
(650 -3.47573e-13 0)
(650 -1.28358e-12 0)
(650 -6.93303e-13 0)
(650 -8.50104e-14 0)
(650 3.1592e-13 0)
(650 2.28208e-13 0)
(650 4.6745e-13 0)
(650 5.44141e-13 0)
(650 4.09151e-13 0)
(650 2.9256e-14 0)
(650 -1.17462e-05 0)
(650 -8.57571e-06 0)
(650 -6.92529e-06 0)
(650 -4.58021e-06 0)
(650 -2.1061e-06 0)
(650 -7.90038e-07 0)
(650 -3.36349e-07 0)
(650 -1.23415e-07 0)
(650 -5.26621e-08 0)
(650 -2.22058e-08 0)
(650 -9.07077e-09 0)
(650 -3.52547e-09 0)
(650 -1.35371e-09 0)
(650 -4.93269e-10 0)
(650 -2.1269e-10 0)
(650 -1.00507e-10 0)
(650 -3.88377e-11 0)
(650 -1.47011e-11 0)
(650 -2.64385e-12 0)
(650 -3.87775e-13 0)
(650 -1.39612e-12 0)
(650 -4.19204e-12 0)
(650 -5.4366e-12 0)
(650 -5.02185e-12 0)
(650 -2.85495e-12 0)
(650 4.8609e-11 0)
(650 3.02439e-10 0)
(650 1.16324e-09 0)
(650 7.41517e-09 0)
(650 3.79885e-08 0)
(650 1.62569e-07 0)
(650 5.39792e-07 0)
(650 7.0944e-07 0)
(650 1.97745e-07 0)
(650 9.46624e-08 0)
(650 2.61184e-08 0)
(650 5.52535e-09 0)
(650 1.0238e-09 0)
(650 1.63747e-10 0)
(650 1.75938e-11 0)
(650 -1.11346e-12 0)
(650 -1.61817e-12 0)
(650 -1.25776e-12 0)
(650 -4.50568e-13 0)
(650 1.82277e-13 0)
(650 4.03615e-13 0)
(650 6.73386e-13 0)
(650 4.9423e-13 0)
(650 4.48375e-13 0)
(650 -6.51982e-15 0)
(650 -1.13402e-05 0)
(650 -8.43821e-06 0)
(650 -6.7823e-06 0)
(650 -4.67355e-06 0)
(650 -2.16024e-06 0)
(650 -7.86832e-07 0)
(650 -3.30702e-07 0)
(650 -1.16596e-07 0)
(650 -5.15358e-08 0)
(650 -2.21507e-08 0)
(650 -9.01537e-09 0)
(650 -3.45748e-09 0)
(650 -1.31112e-09 0)
(650 -4.70976e-10 0)
(650 -2.14451e-10 0)
(650 -1.06877e-10 0)
(650 -4.12594e-11 0)
(650 -1.50612e-11 0)
(650 -3.43405e-12 0)
(650 -1.83768e-12 0)
(650 -3.03553e-12 0)
(650 -4.92815e-12 0)
(650 -6.1176e-12 0)
(650 -5.32221e-12 0)
(650 -1.59282e-12 0)
(650 9.25322e-11 0)
(650 5.31359e-10 0)
(650 1.73035e-09 0)
(650 1.09382e-08 0)
(650 5.18654e-08 0)
(650 1.98668e-07 0)
(650 6.48129e-07 0)
(650 8.42028e-07 0)
(650 1.94216e-07 0)
(650 1.22243e-07 0)
(650 3.21787e-08 0)
(650 6.21285e-09 0)
(650 1.04145e-09 0)
(650 1.46592e-10 0)
(650 1.03088e-11 0)
(650 -2.97682e-12 0)
(650 -2.19409e-12 0)
(650 -1.53248e-12 0)
(650 -7.92903e-13 0)
(650 2.0945e-13 0)
(650 4.72866e-13 0)
(650 8.67777e-13 0)
(650 5.58026e-13 0)
(650 7.21455e-13 0)
(650 1.59982e-13 0)
(650 7.47749e-13 0)
(650 -6.47066e-13 0)
(650 -1.05737e-12 1.08169e-17)
(650 4.48958e-13 -1.12496e-17)
(650 -2.38776e-13 0)
(650 1.92665e-13 0)
(650 1.39099e-13 1.1011e-17)
(650 -2.37647e-14 4.39275e-17)
(650 -1.14355e-12 0)
(650 -7.55341e-13 0)
(650 1.54886e-12 -2.14796e-17)
(650 1.32595e-11 -2.15135e-17)
(650 5.959e-11 -2.15456e-17)
(650 8.48577e-08 -2.1474e-17)
(650 -3.25692e-06 -2.10497e-17)
(650 -3.70684e-07 2.0831e-17)
(650 -1.193e-08 4.17074e-17)
(650 -3.58982e-10 4.17633e-17)
(650 -1.4217e-11 0)
(650 4.93356e-12 2.0863e-17)
(650 3.57755e-12 -4.17451e-17)
(650 1.33207e-11 -2.09258e-17)
(650 4.66677e-11 0)
(650 1.87437e-10 2.08979e-17)
(650 9.41688e-10 -2.09236e-17)
(650 3.88714e-09 2.09525e-17)
(650 3.19917e-08 -2.0978e-17)
(650 1.5856e-07 4.23775e-17)
(650 1.09004e-06 0)
(650 2.1051e-06 0)
(650 1.13071e-05 3.76909e-17)
(650 4.84735e-06 -1.07225e-17)
(650 3.87448e-06 -1.09681e-17)
(650 2.4467e-07 -2.25451e-17)
(650 2.62262e-06 0)
(650 -1.48401e-05 0)
(650 -7.79603e-06 -1.04444e-17)
(650 -8.30474e-07 0)
(650 -5.28512e-08 2.09456e-17)
(650 -1.11035e-09 -3.02708e-28)
(650 -7.25296e-11 2.07869e-17)
(650 -2.30335e-11 -2.07894e-17)
(650 -1.03699e-11 2.07486e-17)
(650 6.07017e-11 3.17982e-28)
(650 0.000148911 0)
(650.014 -3.81208 4.14019e-17)
(655.289 -3.32987 0)
(647.686 2.67263 -2.3532e-17)
(649.175 -7.6966 0)
(653.306 -2.24315 -9.18692e-18)
(646.336 0.86702 -3.31212e-17)
(650.24 1.04166 0)
(646.244 -1.212 0)
(634.264 -5.71553 4.2113e-17)
(525.304 17.8039 0)
(541.831 -204.685 9.66181e-18)
(555.532 -74.1789 0)
(483.464 22.2051 3.16717e-17)
(339.362 345.607 0)
(257.071 392.826 -1.61586e-17)
(361.857 313.825 1.22312e-17)
(649.844 0.146491 -2.92253e-17)
(510.275 308.123 0)
(661.911 308.985 -5.41778e-18)
(664.732 122.72 -1.12888e-17)
(601.96 -11.7918 -7.69062e-18)
(532.858 -107.87 0)
(483.656 -164.524 -2.23794e-17)
(414.207 -250.402 -2.07428e-17)
(361.862 -271.687 -1.84126e-17)
(356.974 -229.817 1.69266e-17)
(382.591 -177.28 1.92717e-17)
(416.53 -111.395 0)
(-57.7854 199.019 5.16296e-17)
(-142.503 -152.248 1.08263e-17)
(517.019 -25.2239 5.19756e-18)
(647.736 1.79757 0)
(649.99 0.00704898 9.13711e-18)
(650 2.11056e-05 0)
(650 1.22296e-08 0)
(650 2.00848e-09 0)
(650 2.171e-10 0)
(650 2.51286e-11 -1.50495e-17)
(650 2.18496e-12 0)
(650 -3.91064e-14 -7.62086e-18)
(650 6.97659e-06 -1.94182e-17)
(650 -2.3402e-06 1.09153e-17)
(0.626016 -254.132 -2.16969e-16)
(650 -1.39672e-14 0)
(650 7.23397e-13 0)
(650 -1.97452e-13 -2.15399e-17)
(650 -1.71541e-13 0)
(650 -3.13552e-13 1.09706e-17)
(650 8.43912e-14 -3.49695e-19)
(650 -5.32597e-13 3.3351e-17)
(650 -1.44498e-13 -3.37178e-17)
(650 2.54752e-13 3.1717e-17)
(650 -8.44695e-13 -2.19885e-17)
(650 -1.04515e-12 0)
(650 -8.13038e-13 -2.13502e-17)
(650 4.66624e-12 -2.1466e-17)
(650 6.89867e-11 0)
(650 3.78756e-09 4.31216e-17)
(650 2.60099e-07 2.12609e-17)
(650 -2.65957e-06 -2.08915e-17)
(650 -6.11091e-08 4.16431e-17)
(650 -2.24749e-09 -2.08565e-17)
(650 -5.62939e-11 2.0894e-17)
(650 -5.83383e-12 2.08382e-17)
(650 8.08895e-12 -2.12745e-30)
(650 1.14649e-13 2.09542e-17)
(650 2.74929e-11 0)
(650 9.16543e-11 0)
(650 4.43619e-10 -2.09005e-17)
(650 1.69995e-09 0)
(650 1.22526e-08 2.0953e-17)
(650 6.94628e-08 2.10339e-17)
(650 4.17395e-07 0)
(650 2.3393e-06 -2.17318e-17)
(650 -2.80391e-12 0)
(650 4.51684e-06 2.26496e-17)
(650 -3.2683e-06 1.043e-17)
(650 5.1287e-07 2.23743e-17)
(650 4.84274e-06 1.11083e-17)
(650 -1.3291e-12 0)
(650 -1.28453e-07 0)
(650 -7.99968e-07 0)
(650 -2.98082e-06 -1.98938e-17)
(244.904 189.664 -6.49304e-16)
(650 -7.65883e-07 1.92874e-17)
(650 -1.90113e-07 2.0948e-17)
(650 -4.42103e-09 0)
(650 -2.98882e-10 1.00322e-28)
(650 -3.71842e-11 -2.07764e-17)
(650 -2.02653e-12 -8.48019e-30)
(650 -1.7872e-11 0)
(650 8.14436e-08 0)
(650 -0.0191042 2.08512e-17)
(650.18 -6.06242 0)
(652.629 0.768736 2.33907e-17)
(647.8 -3.82668 0)
(651.535 -8.21744 0)
(644.507 2.31998 -2.48834e-17)
(651.055 -0.301831 -2.10247e-17)
(649.431 2.49301 0)
(645.269 -3.41752 0)
(600.05 -5.77218 -1.42523e-17)
(481.18 -0.94083 0)
(476.846 -194.946 0)
(488.504 2.10961 0)
(405.913 112.043 2.43047e-17)
(704.07 165.974 -6.38088e-19)
(499.214 278.769 0)
(424.493 326.948 -1.35071e-17)
(650.96 304.526 4.91821e-18)
(666.243 -20.8499 6.62787e-18)
(588.374 -115.83 0)
(514.35 -166.538 -1.35145e-17)
(435.613 -270.054 5.35584e-17)
(384.133 -291.35 1.43998e-18)
(346.423 -290.826 -3.47155e-17)
(343.442 -260.135 -2.86161e-17)
(375.877 -192.093 0)
(404.307 -119.525 0)
(606.294 31.9684 1.6559e-17)
(649.836 0.107525 -1.15803e-17)
(649.999 0.000426999 0)
(650 -0.000137459 3.19329e-18)
(650 7.907e-07 3.77005e-25)
(650 -3.60473e-07 1.65719e-17)
(650 2.90607e-09 -2.48602e-27)
(650 6.28585e-10 1.42107e-17)
(650 9.14918e-11 -3.57478e-17)
(650 7.85149e-12 -2.27609e-17)
(650 1.05949e-12 0)
(650 -2.14059e-13 -1.11252e-17)
(650 -7.39108e-14 -1.12253e-17)
(650 -3.51763e-13 1.24376e-17)
(650 -8.70905e-13 4.22398e-20)
(650 -1.78694e-12 0)
(650 -3.56997e-12 0)
(650 -4.16577e-12 2.1415e-17)
(650 -3.45225e-10 0)
(650 -1.86746e-08 -2.15291e-17)
(650 -3.85515e-06 -3.04724e-26)
(650 -2.55247e-05 2.09615e-17)
(650 -5.27483e-07 -4.15427e-17)
(650 -2.62957e-08 -2.08075e-17)
(650 -6.44058e-10 -4.17445e-17)
(650 -8.28769e-11 1.01637e-20)
(650 -1.22044e-11 2.08256e-17)
(650 9.81141e-12 1.01907e-20)
(650 8.85812e-12 4.07402e-20)
(650 1.87959e-11 0)
(650 5.13838e-11 -2.08853e-17)
(650 8.80684e-11 2.09134e-17)
(650 -1.83567e-09 -2.09419e-17)
(650 9.75708e-10 2.10636e-17)
(650 6.10476e-10 -2.15164e-17)
(650 2.88127e-07 0)
(650 1.99997e-06 0)
(650 6.32739e-06 -2.17698e-17)
(650 6.42797e-06 1.12613e-17)
(650 3.4138e-06 -1.53317e-18)
(650 -4.72505e-08 -6.35589e-19)
(650 7.2579e-09 -1.63232e-19)
(650 -4.09099e-10 4.16514e-17)
(650 -8.11542e-11 -2.07454e-17)
(650 -1.26859e-11 2.08181e-17)
(650 5.00503e-12 0)
(650 1.99755e-09 -2.08666e-17)
(650 8.50811e-05 -2.07711e-17)
(650.085 -1.06264 -2.072e-17)
(655.163 -5.35815 -1.88827e-17)
(647.83 -3.2872 0)
(649.371 2.30729 0)
(648.44 -0.175545 2.91745e-17)
(646.373 4.36462 3.14692e-17)
(649.982 1.18979 0)
(645.347 0.256353 4.19266e-18)
(621.599 3.61845 -2.59858e-17)
(511.826 73.4564 0)
(517.693 -110.408 -9.51202e-18)
(559.93 144.08 0)
(504.583 223.416 -2.09253e-17)
(649.648 0.799754 -2.67557e-21)
(391.35 3.41002 -8.74953e-18)
(649.387 -0.514434 1.22208e-17)
(649.998 -0.00208585 -3.9155e-18)
(650 -7.58425e-06 -2.08209e-17)
(650 -2.73953e-08 1.4093e-17)
(650 2.82007e-10 -1.68969e-17)
(650 -3.32058e-11 1.53605e-17)
(650 1.18496e-12 2.53884e-17)
(650 -2.2243e-11 4.29815e-17)
(650 -3.50011e-09 2.15145e-17)
(650 -2.18255e-07 -2.16204e-17)
(650 -3.77691e-05 2.11872e-17)
(650 -3.67094e-06 8.13665e-20)
(650 -1.11211e-07 -4.15818e-17)
(650 -4.20714e-09 7.7314e-29)
(650 -1.54619e-10 2.04115e-20)
(650 -4.56342e-11 -4.1687e-17)
(650 -6.18449e-13 -1.84634e-30)
(650 1.18977e-11 2.09997e-17)
(650 1.23515e-11 0)
(650 3.28101e-11 2.04027e-20)
(650 9.52905e-11 2.08931e-17)
(650 -2.01211e-10 0)
(650 -3.59364e-09 -2.09308e-17)
(650 -1.90973e-08 -4.24319e-17)
(650 3.17389e-08 3.39769e-19)
(650 2.31477e-06 2.18021e-17)
(650 1.03094e-06 1.02689e-17)
(650 -6.47812e-06 0)
(650 1.44744e-06 1.37893e-18)
(650 -7.93111e-12 4.1382e-17)
(650 -4.81305e-12 -4.14024e-17)
(650 9.57639e-12 2.07987e-17)
(650 2.65122e-06 0)
(650.005 -0.228078 -2.07666e-17)
(652.422 -2.82387 2.00372e-20)
(650.267 -5.95809 1.79648e-17)
(648.757 0.28873 4.74082e-20)
(654.42 0.368754 0)
(644.984 0.572202 2.02623e-17)
(652.349 2.14543 6.61453e-19)
(648.158 0.665653 0)
(641.774 1.32836 -1.96184e-17)
(566.118 26.9797 1.52208e-17)
(552.985 56.2254 -7.11071e-18)
(516.18 116.615 0)
(517.367 195.278 -1.53625e-17)
(425.264 311.783 0)
(650 -3.84744e-13 -4.26086e-17)
(650 -6.50089e-12 2.1117e-17)
(650 -1.00694e-13 -1.01917e-17)
(650 -3.85527e-06 -1.11462e-17)
(650 -9.97246e-11 -2.08168e-17)
(650 -2.93225e-10 -2.0963e-17)
(650 1.35041e-07 -4.15213e-17)
(650 -8.93854e-13 0)
(650 -1.03702e-12 3.57489e-17)
(650 -7.95623e-11 0)
(649.961 -0.0357503 -9.9598e-18)
(641.243 -14.1195 0)
(650 3.40264e-10 -1.08392e-17)
(650 -8.86835e-13 2.1639e-17)
(650 -7.75354e-13 0)
(650 -1.24116e-13 2.01571e-17)
(650 -9.48594e-13 0)
(650 -1.80088e-12 -2.21923e-17)
(650 -1.34087e-06 1.09586e-18)
(650 1.68573e-06 -3.41367e-17)
(650 -2.18074e-11 3.34444e-19)
(650 -3.36019e-12 -2.13105e-17)
(650 3.23443e-08 2.13452e-17)
(650 -5.03406e-12 0)
(650 -1.23943e-10 0)
(650 2.10035e-08 2.22367e-17)
(650 2.79405e-09 -2.1505e-17)
(650 2.46171e-07 -2.16498e-17)
(650 3.28748e-05 0)
(650 -0.000596943 2.07788e-17)
(650 -1.12564e-05 -3.28819e-24)
(650 -2.19858e-07 5.08105e-21)
(650 -1.83176e-08 2.08753e-17)
(650 1.9108e-10 -2.09521e-17)
(650 1.792e-10 -2.08235e-17)
(650 7.39514e-12 2.08212e-17)
(650 3.47046e-12 -2.09017e-17)
(650 7.60661e-12 -2.08666e-17)
(650 1.05151e-11 2.0825e-17)
(650 -2.26316e-10 0)
(650 -1.63511e-09 -2.09479e-17)
(650 -1.03077e-08 2.10312e-17)
(650 -3.58813e-08 4.2713e-17)
(650 -6.21331e-07 -2.2297e-17)
(650 8.01517e-07 2.11078e-17)
(650 -9.1487e-07 -2.26722e-17)
(650 1.14148e-06 -1.87308e-17)
(650 -5.07859e-12 4.93992e-32)
(650 -7.28885e-12 2.10189e-17)
(650 -2.25263e-11 -2.12303e-17)
(650 -1.88637e-10 2.07519e-17)
(650 -2.00155e-07 -4.62462e-18)
(650 1.08715e-06 -2.31811e-17)
(650 1.48813e-06 2.20954e-17)
(650 -3.36717e-12 2.08057e-17)
(650 -2.23996e-12 -2.16719e-17)
(650 -3.37618e-12 2.35201e-17)
(650 -3.73411e-12 2.17515e-17)
(566.066 -77.2719 5.26172e-18)
(650 1.2579e-12 -1.77423e-17)
(650 -5.50076e-10 -2.07569e-17)
(650 1.90377e-11 2.07659e-17)
(650 -4.6145e-11 2.0769e-17)
(650 5.93551e-12 0)
(650 -1.81438e-09 2.08343e-17)
(650 -1.40028e-10 -2.08881e-17)
(650 -4.15101e-12 0)
(650 1.61605e-11 0)
(650 -1.60027e-08 2.0711e-17)
(650.001 -0.000382401 -2.07385e-17)
(650.006 -0.142072 -2.08031e-17)
(650.124 -8.36147 0)
(651.187 -1.78882 -3.5329e-20)
(649.273 -1.07177 0)
(649.759 -1.80575 -1.43124e-19)
(649.4 0.809352 2.08225e-17)
(648.38 2.41983 -1.35518e-17)
(644.09 9.29552 -1.96637e-17)
(625.664 72.2033 -1.39249e-17)
(596.101 178.874 -7.90389e-18)
(583.12 199.572 -1.32606e-17)
(602.006 187.199 0)
(553.294 244.943 -9.64362e-18)
(412.409 324.317 8.18475e-18)
(650 -7.79715e-13 4.42947e-17)
(650 -2.51719e-12 -1.72434e-31)
(695.832 99.7469 0)
(535.186 209.978 0)
(477.446 -79.7882 1.74012e-17)
(633.019 193.511 -8.31888e-18)
(607.609 149.816 1.89361e-17)
(699.205 119.455 1.47671e-17)
(650 -5.22145e-06 4.39053e-17)
(649.435 -0.0664963 0)
(650 9.89958e-09 2.03663e-17)
(649.997 -0.000327471 -1.07551e-17)
(650 -0.000121207 -3.24723e-17)
(643.425 0.414854 -1.53511e-17)
(649.278 -0.756181 -6.6916e-18)
(650 5.59912e-08 -3.85052e-17)
(650 2.02214e-09 1.1079e-17)
(650 3.96683e-08 -1.53878e-17)
(650 -1.92909e-08 2.06489e-17)
(650 3.05252e-11 4.37007e-17)
(649.961 -0.00581071 -1.84039e-17)
(649.999 -0.00203274 2.39395e-17)
(650 1.30495e-11 -3.60033e-17)
(650 5.38496e-10 -1.24902e-17)
(650 2.1009e-11 -1.14161e-17)
(650 6.6303e-10 2.15288e-17)
(650 -3.63692e-08 0)
(650 2.25247e-11 -3.80409e-18)
(650 -1.19604e-11 1.32623e-17)
(650 -1.61959e-13 0)
(629.018 -67.0204 -2.18154e-17)
(563.145 -176.468 0)
(481.867 -266.383 0)
(411.16 -304.828 -3.57114e-17)
(376.262 -251.72 3.01348e-17)
(439.169 -163.106 -1.57579e-17)
(544.311 -154.617 2.48043e-17)
(570.998 -126.687 1.93215e-17)
(597.801 -73.9793 -1.96531e-17)
(560.977 -51.9432 -1.79458e-17)
(650 -5.07486e-07 -1.01886e-25)
(650 1.2822e-07 -1.02042e-25)
(650 -7.23633e-13 -2.25931e-17)
(650 -9.72252e-13 0)
(650 -4.17197e-13 2.39344e-17)
(650 -1.24241e-08 2.09836e-17)
(650 1.13098e-09 -3.27117e-19)
(650 -4.99392e-13 0)
(650 -2.44523e-06 2.07967e-17)
(650 2.2933e-07 -1.98513e-17)
(498.816 276.305 0)
(494.419 267.904 0)
(542.196 229.331 0)
(650 -2.18772e-12 1.03278e-17)
(650 -4.24874e-07 2.07693e-17)
(650 -7.32261e-08 -2.08308e-17)
(650 -2.38341e-13 3.51786e-19)
(650 -5.20881e-14 7.24405e-19)
(629.604 -8.32046 -1.30608e-18)
(650 1.76401e-07 3.38581e-17)
(650 -1.45641e-05 -2.06686e-17)
(650 -1.62384e-06 0)
(650 -6.5619e-10 -2.17645e-17)
(650 1.78732e-11 -1.55487e-29)
(650 2.45185e-07 -2.97438e-17)
(650 -7.27905e-12 -4.14528e-17)
(650 -2.0942e-11 -1.7089e-17)
(650 -7.37311e-13 0)
(650 1.27196e-08 -2.15737e-17)
(650 2.49626e-06 1.68891e-19)
(650 -0.000296866 0)
(650 -7.62456e-05 2.06691e-17)
(650 -1.29316e-06 0)
(650 -2.00878e-07 -2.08471e-17)
(650 -2.24652e-09 -2.09586e-17)
(650 3.96535e-10 -2.08779e-17)
(650 2.69041e-11 0)
(650 9.58923e-12 2.08664e-17)
(650 7.40821e-12 0)
(650 1.04408e-11 -2.03663e-20)
(650 -1.22788e-10 2.08751e-17)
(650 -6.61168e-10 0)
(650 -6.40914e-09 -2.11004e-17)
(650 -2.69999e-08 0)
(650 -1.68741e-07 -3.4021e-19)
(650 -1.52942e-06 -2.22371e-17)
(650 -1.97592e-06 1.06506e-17)
(567.543 239.154 0)
(650 -0.00100694 6.63402e-19)
(650 2.18877e-06 -1.58708e-26)
(650 2.21092e-06 2.10451e-17)
(650 1.59485e-06 -1.11921e-17)
(650 1.38655e-06 -2.37877e-17)
(650 2.87544e-07 0)
(650 -2.34745e-07 4.31321e-17)
(650 8.48845e-07 1.17566e-17)
(650 -1.20841e-05 2.15859e-17)
(650 -1.50288e-12 9.6788e-18)
(650 -8.00332e-08 -8.18877e-20)
(650 1.40459e-12 -4.0714e-20)
(650 9.52204e-12 0)
(650 -8.43416e-12 -2.06474e-17)
(650 -7.07396e-12 0)
(650 4.52878e-12 2.02229e-20)
(650 -1.00228e-10 -2.07773e-17)
(650 1.74653e-06 0)
(650.003 -0.00656213 2.07353e-17)
(650.016 -6.23609 -2.06749e-17)
(651.083 -5.12193 2.1264e-17)
(651.191 0.158604 -2.05124e-17)
(647.24 -6.50755 0)
(648.388 1.39128 -2.10957e-17)
(649.591 3.09024 1.23509e-17)
(650.415 0.53921 2.26857e-17)
(646.884 5.32534 -3.96925e-18)
(633.995 31.5353 1.22176e-17)
(618.884 127.897 -1.71672e-17)
(554.848 201.715 1.25013e-17)
(613.946 153.128 2.22641e-17)
(573.155 226.173 -1.57501e-17)
(650 -5.86745e-10 0)
(650 -9.67155e-11 -2.0854e-17)
(684.872 -43.046 1.49842e-17)
(650 2.32319e-13 -1.05713e-17)
(650 -1.26514e-12 -2.30983e-17)
(649.968 -0.0401473 -1.03403e-17)
(650 1.94179e-07 0)
(650 -4.77219e-09 -2.23869e-29)
(650 -1.11328e-12 2.20954e-17)
(650 -1.15178e-12 -2.26756e-17)
(650 -9.09943e-13 0)
(650 6.14351e-07 8.95546e-18)
(650 -3.91514e-08 0)
(650 3.08901e-07 -3.79098e-17)
(650 2.19242e-09 0)
(650 9.43285e-14 -2.27545e-18)
(650 2.52724e-10 0)
(514.452 -294.111 0)
(600.819 -183.422 1.56392e-17)
(448.726 -350.441 2.50396e-17)
(382.606 -335.839 -1.52229e-17)
(394.222 -212.801 4.46244e-18)
(584.259 -62.8661 1.74356e-17)
(523.07 -174.282 5.46886e-17)
(650 -2.436e-06 -5.32426e-26)
(554.309 171.347 -1.6186e-17)
(612.022 132.916 2.64454e-17)
(630.048 45.3674 -6.42847e-18)
(650 -3.69508e-07 1.39254e-18)
(571.431 -87.5627 0)
(650 2.36053e-09 -1.8649e-17)
(650 -6.22908e-06 4.14849e-17)
(611.257 179.368 -7.05576e-18)
(571.79 155.048 6.04252e-18)
(623.854 88.864 1.45939e-17)
(639.649 15.8869 -1.1442e-17)
(647.786 4.19351 0)
(650.285 1.00724 -1.96009e-17)
(649.742 -0.355059 0)
(648.19 -4.85554 5.27217e-21)
(651.237 -3.87082 2.1043e-17)
(650.483 -2.45171 0)
(650.016 -0.372526 4.04206e-20)
(650 -1.04433e-07 -2.20198e-17)