/*--------------------------------*- C++ -*----------------------------------*\
  =========                 |
  \\      /  F ield         | OpenFOAM: The Open Source CFD Toolbox
   \\    /   O peration     | Website:  https://openfoam.org
    \\  /    A nd           | Version:  6
     \\/     M anipulation  |
\*---------------------------------------------------------------------------*/
FoamFile
{
    version     2.0;
    format      ascii;
    class       surfaceScalarField;
    location    "0.0004";
    object      phi;
}
// * * * * * * * * * * * * * * * * * * * * * * * * * * * * * * * * * * * * * //

dimensions      [1 0 -1 0 0 0 0];

internalField   nonuniform List<scalar> 
5786
(
0.150621
-3.30291e-15
0.150621
-2.41474e-15
0.150621
-3.85803e-15
0.150621
-4.02456e-15
0.150621
1.80411e-15
0.150621
3.85803e-15
0.150621
3.85803e-15
0.150621
3.46945e-15
0.150621
8.32667e-17
0.150621
-2.47025e-15
0.150621
-4.21885e-15
0.150621
-2.85882e-15
0.150621
-5.93969e-15
0.150621
-5.63438e-15
0.150621
-3.30291e-15
0.150621
-1.32117e-14
0.150621
-1.09079e-14
0.150621
8.27116e-14
0.150621
1.0128e-13
0.150621
4.50195e-14
0.150621
6.63358e-15
0.150621
7.99361e-15
0.150621
1.40443e-14
0.150621
4.77396e-15
0.150621
-2.13995e-14
0.150621
-1.34337e-14
0.150621
1.25733e-14
0.150621
8.43769e-15
0.150621
5.52336e-15
0.150621
-1.36002e-14
0.150621
-2.41751e-14
0.150621
-9.38138e-15
0.150621
2.17049e-14
0.150621
1.16157e-13
0.150621
3.67539e-13
0.150621
1.02918e-12
0.150621
2.86327e-12
0.150621
8.12289e-12
0.150621
2.30074e-11
0.150621
6.31144e-11
0.150621
1.70089e-10
0.150621
4.475e-10
0.150621
1.11954e-09
0.150621
2.72671e-09
0.150621
6.43456e-09
0.150621
1.49312e-08
0.150621
3.27197e-08
0.150621
6.45524e-08
0.150621
9.55707e-08
1.53859e-07
0.150621
-2.72005e-15
0.150621
-2.30371e-15
0.150621
-3.52496e-15
0.150621
-7.63278e-15
0.150621
-1.11022e-16
0.150621
1.44329e-15
0.150621
6.41154e-15
0.150621
3.05311e-15
0.150621
1.58207e-15
0.150621
-2.30371e-15
0.150621
-3.38618e-15
0.150621
-6.77236e-15
0.150621
-1.10745e-14
0.150621
-8.77076e-15
0.150621
-9.07607e-15
0.150621
-2.87548e-14
0.150621
-3.76088e-14
0.150621
7.53841e-14
0.150621
1.24789e-13
0.150621
5.14588e-14
0.150621
6.16174e-15
0.150621
9.27036e-15
0.150621
2.04003e-14
0.150621
1.11022e-14
0.150621
-3.22242e-14
0.150621
-2.226e-14
0.150621
1.39611e-14
0.150621
3.91354e-15
0.150621
9.74221e-15
0.150621
-7.93809e-15
0.150621
-2.57572e-14
0.150621
-1.42386e-14
0.150621
2.53686e-14
0.150621
1.29813e-13
0.150621
3.89827e-13
0.150621
1.05421e-12
0.150621
2.85275e-12
0.150621
7.98017e-12
0.150621
2.26588e-11
0.150621
6.17682e-11
0.150621
1.67417e-10
0.150621
4.46439e-10
0.150621
1.1157e-09
0.150621
2.72699e-09
0.150621
6.48805e-09
0.150621
1.53389e-08
0.150621
3.39545e-08
0.150621
6.4015e-08
0.150621
9.46427e-08
1.5103e-07
0.150621
-3.91354e-15
0.150621
-2.94209e-15
0.150621
-4.94049e-15
0.150621
-6.57807e-15
0.150621
1.52656e-15
0.150621
4.82947e-15
0.150621
3.21965e-15
0.150621
3.4972e-15
0.150621
-1.30451e-15
0.150621
-2.22045e-16
0.150621
-2.58127e-15
0.150621
-5.77316e-15
0.150621
-1.21014e-14
0.150621
-1.62093e-14
0.150621
-8.90954e-15
0.150621
-4.8711e-14
0.150621
-8.61533e-14
0.150621
6.80012e-15
0.150621
1.26982e-13
0.150621
5.97855e-14
0.150621
6.16174e-15
0.150621
1.02696e-14
0.150621
2.56462e-14
0.150621
1.92346e-14
0.150621
-3.43059e-14
0.150621
-3.44169e-14
0.150621
1.23512e-14
0.150621
4.996e-16
0.150621
1.29341e-14
0.150621
-9.4369e-16
0.150621
-3.55271e-14
0.150621
-1.53766e-14
0.150621
2.78388e-14
0.150621
1.42081e-13
0.150621
4.15196e-13
0.150621
1.08832e-12
0.150621
2.84253e-12
0.150621
7.8407e-12
0.150621
2.24223e-11
0.150621
6.0492e-11
0.150621
1.65077e-10
0.150621
4.47106e-10
0.150621
1.11499e-09
0.150621
2.73378e-09
0.150621
6.57344e-09
0.150621
1.57942e-08
0.150621
3.50932e-08
0.150621
6.35319e-08
0.150621
9.51462e-08
1.46162e-07
0.150621
-9.15934e-16
0.150621
-3.13638e-15
0.150621
-2.69229e-15
0.150621
-6.7446e-15
0.150621
-2.96985e-15
0.150621
5.44009e-15
0.150621
9.10383e-15
0.150621
3.46945e-15
0.150621
-1.36002e-15
0.150621
2.59612e-32
0.150621
-2.33147e-15
0.150621
-8.82627e-15
0.150621
-1.54321e-14
0.150621
-2.70617e-14
0.150621
-1.90403e-14
0.150621
-7.23865e-14
0.150621
-1.83409e-13
0.150621
-1.67644e-13
0.150621
8.34888e-14
0.150621
6.10345e-14
0.150621
3.94129e-15
0.150621
9.57567e-15
0.150621
3.43059e-14
0.150621
2.85882e-14
0.150621
-3.9857e-14
0.150621
-4.75731e-14
0.150621
7.27196e-15
0.150621
5.77316e-15
0.150621
6.55032e-15
0.150621
3.16414e-15
0.150621
-3.87468e-14
0.150621
-2.226e-14
0.150621
2.86715e-14
0.150621
1.47493e-13
0.150621
4.34347e-13
0.150621
1.12924e-12
0.150621
2.8556e-12
0.150621
7.69362e-12
0.150621
2.22793e-11
0.150621
5.92859e-11
0.150621
1.63055e-10
0.150621
4.49294e-10
0.150621
1.1172e-09
0.150621
2.74705e-09
0.150621
6.68627e-09
0.150621
1.62822e-08
0.150621
3.61253e-08
0.150621
6.29574e-08
0.150621
9.66028e-08
1.39855e-07
0.150621
-4.69181e-16
0.150621
-3.64693e-16
0.150621
-1.01238e-15
0.150621
-5.00986e-15
0.150621
-9.33285e-16
0.150621
6.415e-15
0.150621
3.89274e-15
0.150621
7.79238e-15
0.150621
3.18835e-15
0.150621
-3.89962e-15
0.150621
-1.15193e-15
0.150621
-9.28772e-15
0.150621
-1.7462e-14
0.150621
-4.22824e-14
0.150621
-1.81007e-14
0.150621
-1.16338e-13
0.150621
-3.35212e-13
0.150621
-6.94322e-13
0.150621
-2.90712e-14
0.150621
4.03335e-14
0.150621
-3.23792e-16
0.150621
5.90142e-15
0.150621
4.06527e-14
0.150621
5.32372e-14
0.150621
-3.13453e-14
0.150621
-5.83905e-14
0.150621
-3.51586e-15
0.150621
1.84074e-14
0.150621
-6.7654e-15
0.150621
2.05061e-14
0.150621
-4.42761e-14
0.150621
-2.47525e-14
0.150621
2.23223e-14
0.150621
1.29666e-13
0.150621
4.03155e-13
0.150621
1.0422e-12
0.150621
2.41962e-12
0.150621
6.28117e-12
0.150621
2.00463e-11
0.150621
5.09696e-11
0.150621
1.4607e-10
0.150621
4.31958e-10
0.150621
1.06049e-09
0.150621
2.68046e-09
0.150621
6.73711e-09
0.150621
1.69902e-08
0.150621
3.69071e-08
0.150621
6.227e-08
0.150621
9.82627e-08
1.3231e-07
0.053693
-0.0270151
-0.0221449
-0.00322705
0.0712652
-0.106835
0.126418
-0.0819902
-0.0425058
-0.173831
0.0551931
-0.273372
0.234693
-0.204639
0.0148609
-0.268638
-8.47499e-05
-0.358206
0.00829552
-0.421054
0.0475763
-0.467097
0.0589947
-0.289026
-0.167127
-0.0188971
-0.28473
0.0499561
-0.113079
0.0120558
0.00409793
0.142308
-0.16058
-0.0132583
-0.151345
0.392782
-0.0576904
0.0451174
-0.0476349
-0.0777516
-0.0599331
0.0542011
-0.250296
0.55824
-0.224041
0.0458971
-0.284581
-0.0490785
-0.499486
0.184202
-0.706752
0.230991
-0.53964
-0.104801
-0.235858
-0.474602
0.307293
-0.881366
0.0238642
0.123309
0.0445435
-0.0543742
-0.00333838
-0.171896
-0.0106514
-0.0350441
0.453225
-0.00328189
0.0142919
-0.115284
0.00184247
-0.19555
0.159161
-0.211009
0.659877
-0.219929
0.096588
-0.436934
0.0902588
-0.649677
0.362107
-0.574589
0.145574
-0.444704
-0.225585
-0.269421
-0.652216
-0.0072715
-1.17076
0.0207689
0.0588234
0.0943295
-0.0751974
-0.00369965
-0.156354
-0.0161467
-0.02359
0.456103
-0.00531701
-0.00661923
-0.196536
0.142256
-0.353273
0.293758
-0.254605
0.548751
-0.255593
0.19992
-0.377193
0.159149
-0.434599
0.379467
-0.424475
0.125539
-0.385233
-0.257837
-0.294478
-0.745406
0.00135354
-1.46647
0.0357384
0.0328147
0.148936
-0.0663465
-0.0797914
-0.0217645
-0.043911
-0.0193976
0.389419
-0.0163756
0.00179856
-0.184293
0.281271
-0.286405
0.483197
-0.259463
0.441438
-0.261906
0.328807
-0.308184
0.153014
-0.336632
0.348475
-0.353668
0.131806
-0.339653
-0.279861
-0.324854
-0.765476
-0.0109111
-1.76535
0.075312
-0.00824917
-0.0775089
0.241947
-0.106179
0.0453126
-0.109668
0.00617017
0.441384
-0.628848
0.814883
-0.425878
0.639868
0.145476
0.423942
0.135635
0.243754
0.153575
0.188728
0.0139665
0.19426
-0.00607431
0.301037
0.0554282
0.0382007
0.187657
0.0159439
0.0166261
-0.00972433
0.0263492
-0.0123269
0.00597176
-0.0267518
-0.162951
0.124716
-0.0254266
-0.111666
0.364918
-1.04669
0.687053
-0.776696
0.908857
-0.0895377
0.588104
0.45146
0.328552
0.319005
0.195309
0.0752088
0.243174
-0.0871397
0.252275
0.219448
0.0453478
0.294866
0.045594
0.0387462
-0.000702046
0.0698328
0.00412238
-0.00145844
-0.0244087
-0.144175
0.169185
0.00484497
-0.241803
0.321564
-1.35639
0.500519
-0.965803
0.638817
-0.2461
0.729795
0.330047
0.430387
0.576688
0.259243
0.206347
0.167189
0.0103263
0.282089
0.290859
0.0754553
0.350032
0.073197
0.0627078
0.0288574
0.107648
-0.00124468
-0.00403596
-0.01706
-0.150795
0.233599
0.0217966
-0.388433
0.265548
-1.57943
0.364259
-1.0519
0.445303
-0.350521
0.406596
0.315924
0.361035
0.584818
0.276383
0.274758
0.198921
0.11756
0.232032
0.406902
0.129302
0.356903
0.0741826
0.133437
0.0430561
0.121388
-0.00284412
0.0284019
-0.0241782
-0.220483
0.361329
0.051649
-0.627672
0.269046
-1.77429
0.357664
-1.11607
0.451895
-0.481014
0.374334
0.318705
0.309088
0.571647
0.278152
0.282424
0.159456
0.253158
0.21653
0.371799
0.162029
0.375659
0.102842
0.204632
0.0384997
0.159779
0.0605189
-0.0106806
0.0334646
-0.150621
1.40508e-07
-0.150621
1.24456e-07
-0.150621
1.1561e-07
-0.150621
5.73166e-08
-0.150621
2.61639e-08
-0.150621
1.07693e-08
-0.150621
4.44627e-09
-0.150621
1.72262e-09
-0.150621
6.56772e-10
-0.150621
2.44015e-10
-0.150621
8.94539e-11
-0.150621
3.21011e-11
-0.150621
1.13077e-11
-0.150621
3.86058e-12
-0.150621
1.29874e-12
-0.150621
4.5372e-13
-0.150621
1.60122e-13
-0.150621
5.32629e-14
-0.150621
7.57727e-15
-0.150621
-8.54872e-15
-0.150621
-1.41553e-14
-0.150621
-1.20737e-14
-0.150621
-7.38298e-15
-0.150621
-1.20737e-14
-0.150621
-1.33504e-14
-0.150621
-1.05194e-14
-0.150621
7.77156e-16
-0.150621
3.63598e-15
-0.150621
3.19189e-15
-0.150621
-9.65894e-15
-0.150621
-7.5856e-14
-0.150621
-5.41095e-13
-0.150621
-1.42614e-12
-0.150621
-1.31292e-12
-0.150621
-8.21787e-13
-0.150621
-1.85851e-13
-0.150621
-2.09277e-14
-0.150621
3.69149e-15
-0.150621
1.67921e-14
-0.150621
1.75138e-14
-0.150621
1.113e-14
-0.150621
-3.58047e-15
-0.150621
-9.35363e-15
-0.150621
-1.00198e-14
-0.150621
-9.4369e-15
-0.150621
-7.54952e-15
-0.150621
-5.46785e-15
-0.150621
-6.91114e-15
-0.150621
-1.09357e-14
-4.88498e-15
-0.150621
1.46344e-07
-0.150621
1.23037e-07
-0.150621
1.13684e-07
-0.150621
5.90524e-08
-0.150621
2.69366e-08
-0.150621
1.07941e-08
-0.150621
4.44573e-09
-0.150621
1.69018e-09
-0.150621
6.39366e-10
-0.150621
2.35652e-10
-0.150621
8.64337e-11
-0.150621
3.10021e-11
-0.150621
1.09729e-11
-0.150621
3.75724e-12
-0.150621
1.27659e-12
-0.150621
4.58356e-13
-0.150621
1.64618e-13
-0.150621
5.8259e-14
-0.150621
6.80012e-15
-0.150621
-7.93809e-15
-0.150621
-1.52656e-14
-0.150621
-4.57967e-15
-0.150621
-1.01308e-14
-0.150621
-1.34059e-14
-0.150621
-1.65423e-14
-0.150621
-9.07607e-15
-0.150621
4.13558e-15
-0.150621
9.29812e-15
-0.150621
6.30052e-15
-0.150621
-8.38218e-15
-0.150621
-1.08025e-13
-0.150621
-8.67223e-13
-0.150621
-2.48457e-12
-0.150621
-2.03909e-12
-0.150621
-1.28436e-12
-0.150621
-2.74253e-13
-0.150621
-1.61537e-14
-0.150621
1.45717e-14
-0.150621
2.63123e-14
-0.150621
2.52021e-14
-0.150621
5.30131e-15
-0.150621
-7.43849e-15
-0.150621
-9.88098e-15
-0.150621
-1.11022e-14
-0.150621
-1.04361e-14
-0.150621
-1.01585e-14
-0.150621
-7.57727e-15
-0.150621
-1.22957e-14
-0.150621
-6.7446e-15
-5.82867e-16
-0.150621
1.49284e-07
-0.150621
1.23954e-07
-0.150621
1.11829e-07
-0.150621
6.10763e-08
-0.150621
2.77102e-08
-0.150621
1.08719e-08
-0.150621
4.44941e-09
-0.150621
1.65978e-09
-0.150621
6.22477e-10
-0.150621
2.27544e-10
-0.150621
8.36334e-11
-0.150621
2.99452e-11
-0.150621
1.06436e-11
-0.150621
3.66199e-12
-0.150621
1.26027e-12
-0.150621
4.64184e-13
-0.150621
1.70003e-13
-0.150621
5.99243e-14
-0.150621
1.47105e-15
-0.150621
-1.27398e-14
-0.150621
-1.62093e-14
-0.150621
-6.41154e-15
-0.150621
-1.2601e-14
-0.150621
-2.03171e-14
-0.150621
-1.84297e-14
-0.150621
-4.996e-16
-0.150621
9.02056e-15
-0.150621
1.31561e-14
-0.150621
5.68989e-15
-0.150621
-1.5099e-14
-0.150621
-1.53572e-13
-0.150621
-1.37099e-12
-0.150621
-4.35935e-12
-0.150621
-3.09913e-12
-0.150621
-1.97325e-12
-0.150621
-4.09173e-13
-0.150621
-3.02536e-15
-0.150621
2.89768e-14
-0.150621
4.02178e-14
-0.150621
2.7478e-14
-0.150621
-1.83187e-15
-0.150621
-1.18516e-14
-0.150621
-1.1019e-14
-0.150621
-1.19627e-14
-0.150621
-8.40994e-15
-0.150621
-9.29812e-15
-0.150621
-5.96745e-15
-0.150621
-8.79852e-15
-0.150621
-8.82627e-15
-1.88738e-15
-0.150621
1.52274e-07
-0.150621
1.25256e-07
-0.150621
1.0967e-07
-0.150621
6.34177e-08
-0.150621
2.85139e-08
-0.150621
1.09991e-08
-0.150621
4.45986e-09
-0.150621
1.63143e-09
-0.150621
6.05635e-10
-0.150621
2.19552e-10
-0.150621
8.0999e-11
-0.150621
2.89094e-11
-0.150621
1.02861e-11
-0.150621
3.58247e-12
-0.150621
1.26013e-12
-0.150621
4.72761e-13
-0.150621
1.79134e-13
-0.150621
6.5864e-14
-0.150621
7.77156e-16
-0.150621
-1.67366e-14
-0.150621
-1.3628e-14
-0.150621
-5.80092e-15
-0.150621
-1.74305e-14
-0.150621
-2.22045e-14
-0.150621
-2.21212e-14
-0.150621
-1.69309e-15
-0.150621
1.50713e-14
-0.150621
1.74027e-14
-0.150621
8.77076e-15
-0.150621
-1.84852e-14
-0.150621
-2.27457e-13
-0.150621
-2.13504e-12
-0.150621
-7.67608e-12
-0.150621
-4.65172e-12
-0.150621
-2.97387e-12
-0.150621
-6.13232e-13
-0.150621
2.45637e-14
-0.150621
4.62408e-14
-0.150621
5.14588e-14
-0.150621
2.38143e-14
-0.150621
1.69309e-15
-0.150621
-6.32827e-15
-0.150621
-1.42109e-14
-0.150621
-1.49325e-14
-0.150621
-9.9365e-15
-0.150621
-1.07414e-14
-0.150621
-9.07607e-15
-0.150621
-8.10463e-15
-0.150621
-9.9365e-15
-3.46945e-15
-0.150621
1.56516e-07
-0.150621
1.25449e-07
-0.150621
1.07389e-07
-0.150621
6.62704e-08
-0.150621
2.9705e-08
-0.150621
1.09394e-08
-0.150621
4.31076e-09
-0.150621
1.47405e-09
-0.150621
5.30693e-10
-0.150621
1.84655e-10
-0.150621
6.85295e-11
-0.150621
2.36302e-11
-0.150621
8.21482e-12
-0.150621
2.88218e-12
-0.150621
1.04971e-12
-0.150621
4.09391e-13
-0.150621
1.77112e-13
-0.150621
6.20839e-14
-0.150621
-7.74007e-15
-0.150621
-2.4106e-14
-0.150621
-1.56139e-14
-0.150621
-1.32226e-15
-0.150621
-1.98004e-14
-0.150621
-2.80746e-14
-0.150621
-2.29602e-14
-0.150621
6.42043e-15
-0.150621
2.07229e-14
-0.150621
1.95208e-14
-0.150621
8.96813e-15
-0.150621
-3.0371e-14
-0.150621
-3.27554e-13
-0.150621
-2.77234e-12
-0.150621
-1.43898e-11
-0.150621
-6.97817e-12
-0.150621
-4.58006e-12
-0.150621
-9.22026e-13
-0.150621
1.26089e-13
-0.150621
8.42576e-14
-0.150621
6.30376e-14
-0.150621
2.29679e-14
-0.150621
-3.42782e-15
-0.150621
-8.87161e-15
-0.150621
-1.68582e-14
-0.150621
-1.46861e-14
-0.150621
-8.40292e-15
-0.150621
-8.70094e-15
-0.150621
-4.29522e-15
-0.150621
-7.34477e-15
-0.150621
-7.17017e-15
-1.94319e-15
7.45574
3.19189e-16
2.5894
4.86634
4.06428
3.39146
4.04997
3.40577
3.91886
3.53688
7.45574
-6.35726
6.35726
6.39537
-6.39537
-6.50148
6.50148
-6.58921
6.58921
6.53891
-6.53891
6.51654
-6.51654
6.50645
-6.50645
6.5301
-6.5301
6.67243
-6.67243
6.74255
-6.74255
6.73524
-6.73524
6.7262
-6.7262
6.71679
-6.71679
6.71046
-6.71046
6.70926
-6.70926
6.71197
-6.71197
6.71943
-6.71943
6.72515
-6.72515
6.71754
-6.71754
6.70519
-6.70519
6.69427
-6.69427
6.63561
-6.63561
6.4654
-6.4654
6.61362
-6.61362
-7.45574
-2.522
-4.93374
-4.08574
-3.36999
-3.96449
-3.49124
-4.1353
-3.32044
-7.45574
-1.99092e-07
6.66983
-6.66983
-1.01566e-07
6.79068
-6.79068
-8.2553e-09
-6.64684
6.64684
-4.42284e-11
-6.69619
6.69619
-8.11328e-14
-6.70645
6.70645
1.09603e-13
-6.70564
6.70564
-6.74261e-14
-6.69664
6.69664
-8.26265e-15
-6.69532
6.69532
-1.68008e-14
-6.70649
6.70649
5.88748e-14
-6.71027
6.71027
-1.33456e-13
-6.70933
6.70933
-5.91821e-10
-6.7033
6.70327
0.000201676
-6.64883
6.69742
0.002272
-8.42072
6.26693
-0.31544
-24.777
8.48955
0.0408883
-2.38164
2.03096
0.0813214
-6.65003
7.96799
-0.0740252
-5.59264
5.06603
-0.0306676
-3.24589
3.62219
-0.331332
-0.208784
0.210471
0.506594
-0.0561779
0.151527
0.0512386
-0.444154
0.0375711
0.0768594
-0.478041
0.0966876
0.140764
0.0972698
-0.0701796
-0.488239
2.06749
1.26599
-3.33348
0.716207
-0.564495
-0.886057
1.07812
1.4702
-1.09283
1.97831
-1.77987
2.0226
-1.45632
1.85285
-1.92817
2.92506
-2.73134
3.27298
-3.12771
2.00178
-2.35775
1.44058
-2.22772
1.62961
-3.30438
0.0182695
0.237564
0.0285602
-0.0835957
-0.125332
-0.445557
0.322559
-1.44566
1.44681
-0.00030622
-1.81253
1.81253
2.75383e-06
2.28517
-2.28517
-3.28557e-08
2.80432
-2.80432
-7.68553e-11
-3.55054
3.55054
6.9048e-13
-4.50692
4.50692
6.33013e-14
-5.72963
5.72963
2.49041e-14
-6.53303
6.53303
-5.41003e-16
1.09848
-9.97773
-0.785901
-0.0197348
-4.11511
6.70451
3.34062
7.4049
4.06631
3.38942
7.45777
7.43939
3.40908
4.04666
3.07862
4.37712
6.64291
-6.64291
6.38768
-6.38768
6.57634
-6.57634
-6.56587
6.56587
-6.52339
6.52339
-6.5139
6.5139
-6.50329
6.50329
-6.59554
6.59554
-6.72297
6.72297
-6.74563
6.74563
-6.73434
6.73434
-6.72221
6.72221
-6.71845
6.71845
-6.71287
6.71287
-6.71174
6.71174
-6.72131
6.72131
-6.72169
6.72169
-6.71732
6.71732
-6.71265
6.71265
-6.70677
6.70677
-6.67597
6.67597
-6.55698
6.55698
-6.4767
6.4767
-0.0128781
-6.19075
6.19075
-4.46275
-2.99299
-3.51308
-3.94265
-3.45344
-4.0023
-0.113794
-2.50716
-4.94858
-7.02461
0.35478
-7.02461
-2.27498e-08
0.00471814
-0.233937
6.66492
-6.66492
-7.39392e-10
6.67748
-6.67748
2.31602e-12
6.70697
-6.70697
1.66693e-13
6.70945
-6.70945
3.14051e-14
6.69814
-6.69814
-7.01817e-14
6.69541
-6.69541
8.12995e-14
6.69771
-6.69771
-4.37093e-14
6.7074
-6.7074
-7.53045e-14
6.70485
-6.70485
-6.05169e-13
6.70353
-6.70353
-7.11903e-07
6.69703
-6.69724
0.00163804
6.36876
-6.12455
-0.142716
10.8605
-10.2545
-0.00457032
49.3994
-19.0442
0.91877
2.05905
-3.83468
-0.454976
5.01105
-8.68739
-1.48861e-05
6.03947
-4.21727
-0.143756
1.13799
-0.620978
0.409577
0.167373
-0.120927
0.130898
0.258771
-0.684894
0.410572
-0.915014
-1.17605
2.23918
0.55015
0.323143
0.338059
0.835728
0.400632
0.543353
0.476134
0.521262
0.627414
0.353391
-1.08404
-0.900108
-0.57983
-2.89743
1.25898
-1.27701
-4.44934e-05
1.62577
-1.62586
1.92735e-05
-2.03818
2.03818
1.70848e-08
0.246989
-2.59944
2.59944
-2.7825e-09
0.204882
3.07029
-3.07029
-2.89605e-12
3.99718
-3.99718
2.3071e-13
5.08862
-5.08862
7.93203e-14
6.40825
-6.40825
1.52945e-14
0.922704
7.32793
7.45242
6.6155
0.00768167
-0.0748586
0.0233462
0.015514
0.00263587
0.00316304
-0.0654448
-0.0505333
-0.00308773
0.000903726
0.00399146
-0.00165683
-0.00240994
-0.00248525
-0.0093385
-0.00225931
0.00783229
0.00489518
-0.00158152
0.0183004
0.0786241
-0.0112966
0.422868
-7.59883
-7.41793
-6.64246
-0.125761
0.0306363
0.0107845
0.00299736
-0.00749339
-0.00122756
0.00238734
0.000911257
-0.00541482
-0.00579891
-0.00614779
-0.00267808
-0.00724756
-0.0156502
-0.215071
-0.551147
-0.489167
-0.638481
0.380329
0.0495016
-0.848043
-0.598861
2.66612
0.775865
0.17935
0.225651
0.314271
0.265966
0.446636
0.581706
0.678623
0.00685325
0.00745574
-0.0268105
-0.076892
-0.0195807
0.0103928
0.00813353
0.00542235
0.00798291
0.0036149
-0.000225931
0.00188276
-0.00346428
-0.000225931
0.00745574
0.0125015
0.0403664
0.0915775
-0.136914
-7.83274
-7.4339
-7.32274
-0.00381071
-0.00150621
-9.03726e-05
0.0087812
0.00286933
0.00447344
-0.000258238
0.00691527
0.0044829
-0.00203191
0.0862733
-2.5765
-0.44202
-0.823958
-0.387874
0.219799
-1.14589
-0.866469
0.247546
0.0269611
-0.285653
-7.92673
-0.000519642
0.0187071
-0.0180745
0.124782
0.641005
0.509739
0.186699
0.169967
0.480255
3.70844
3.69646
4.53098
2.08452
5.4756
3.86599
3.58644
6.22449
-6.2168
-4.16595
-3.76078
-3.78699
-6.53401
6.56097
6.56647
-6.64133
6.552
-6.67776
6.60141
-6.57807
0.0674029
-4.24374
-3.35508
-6.51609
6.51872
6.49267
-6.4895
6.50163
-6.56707
-6.75987
6.70933
6.74473
-6.74782
6.73215
-6.73125
-6.72123
6.72523
6.7195
-6.72116
6.71114
-6.71355
6.71528
-6.71777
6.71604
-6.72538
6.72869
-6.73095
-6.72937
6.7372
-6.71604
6.72093
6.70783
-6.70941
6.71543
-6.69713
-6.60684
6.68546
-6.35379
6.3425
-4.34112
-3.49162
-8.50707
-7.73536
-6.63335
6.62047
-0.0668757
0.0423998
6.71787
-6.71839
-5.73448
-3.73035
-3.68758
-2.14484
-4.49762
6.71163
-6.71544
-6.52038
6.40659
-0.295895
-0.234743
-2.00296
2.03489
-7.6355
7.76028
-6.70861
6.7194
0.00926319
-6.71449
6.71749
-0.0028618
-6.70471
6.72342
0.0146855
-6.70689
6.70539
6.70488
-6.70497
-6.70345
6.71223
-6.71774
6.72061
-6.70723
6.71171
-6.71156
6.7113
-6.69701
6.70404
-6.68302
6.70585
-9.2041
5.5232
-10.0417
4.81748
6.98364
-5.54839
-5.48822
3.48984
5.04595
-4.78876
1.24909
-2.8171
-1.82512
2.44743
1.20698
-0.776402
-1.4336
0.180202
0.373662
6.40342
-6.15588
0.186619
1.33349
-0.893842
-0.906224
1.14236
-1.21171
1.29814
-0.82313
0.383352
0.446326
2.49324
-2.24626
1.73966
-1.56076
3.75158
-3.27132
-2.0109
2.23655
0.482347
-1.34683
1.51962
0.393674
-3.09661
3.36257
0.654968
-2.84701
3.0519
0.51556
5.30295
-4.72124
-1.78659
1.97332
0.449954
6.65397
-5.97535
-4.20914
4.71888
1.09381
6.51985
-6.513
0.00376552
-5.26834
5.90934
1.38564
5.78904
1.40766
-0.90815
-1.21183
1.51784
2.60174
-1.90116
2.66045
-2.06726
1.62522
-1.20275
0.219268
-1.17105
-1.05609
0.413535
0.129863
-2.99958
-1.00959
-0.970629
-6.90077
6.66683
-0.348763
3.60037
3.72757
7.46636
8.25855
-6.6698
6.70043
0.0536211
7.56012
-7.54777
-7.87932
0.943242
-0.831013
0.250263
0.2305
-1.84646
6.7308
0.00135559
6.73893
3.68735
3.75204
7.27379
0.29072
-7.52454
6.73976
0.00497049
6.75015
6.51044
0.0505333
6.52595
-0.857711
-0.000903726
1.1881
7.27446
-6.50795
6.51541
-6.49349
6.46668
-6.68117
6.60428
6.7488
-6.76838
0.0189029
0.017698
-6.72681
6.73223
-6.71905
6.72703
-6.71408
6.71769
-6.71122
6.71099
-6.72809
6.72997
6.72289
-6.72635
6.71913
-6.71935
-6.71476
6.72221
-6.71024
6.72274
6.70956
-6.66919
6.57543
-6.48386
6.37345
-6.51036
-7.1249
-1.07047
-0.17954
3.67139
-7.40174
-3.65135
-3.9669
-3.46699
-8.14897
-7.32199
0.0107694
-7.15457
-0.000828415
1.78493
6.59025
-6.60833
-6.69575
-0.0111459
-6.69698
6.71047
-6.71797
0.0079076
-0.00497049
6.70482
-6.70244
6.71595
-6.71504
6.71571
-6.72112
6.71529
-6.72109
6.70507
-6.71116
6.71029
-6.7138
5.99949
-5.3082
6.67074
-3.86597
9.93174
-0.6188
8.14806
4.03273
-5.45309
-5.18846
3.23333
-2.10004
3.34491
-3.59577
3.36374
-0.188536
0.511428
-2.51978
0.00308773
-0.0064767
0.3755
4.85805
1.11859
0.412578
-0.0875108
0.0129534
3.8934
3.56437
7.60184
7.31641
2.52515
0.526752
-0.00158152
2.83942
-3.74248
4.18911
8.55452
0.9764
0.690024
0.515894
0.831307
-0.274751
-0.84698
1.33851
-1.00099
0.419865
-0.751448
-1.11643
-0.750389
-1.16611
0.221639
-0.787877
0.917794
0.59316
-0.835156
-0.610462
-1.08763
-1.58724
-1.54119
-0.453164
-0.0687616
0.00131226
0.0133966
-0.00647673
0.00805822
0.102723
-0.00203338
0.0125015
-0.000150621
-0.167867
0.201606
0.0462406
-0.00240994
0.00617546
0.0178486
0.00233462
-0.0120497
0.00406677
-0.00293711
0.000451863
-0.000979036
0.0256056
-0.0143843
0.0128028
-7.53105e-05
0.000979033
-0.155592
-0.100389
0.0259068
-0.0590434
0.0134806
0.0110706
-0.605664
-0.0556936
-0.00762993
-0.00707952
-0.00979036
-0.00941381
0.0921047
-0.0125768
0.00557297
0.00979036
-1.07254
-1.63078
6.72974
-6.74232
6.78608
-6.73245
-6.7494
6.7671
-6.7381
6.75158
-6.50728
6.51805
-6.8452
6.78615
-5.56318
7.34812
2.99133
-4.22492
-3.17682
-6.47331
6.37292
6.69759
-6.85319
-0.147611
-6.75414
6.77305
-6.49312
6.54365
3.0122
-2.41904
10.8746
-6.15082
-6.75362
6.75264
-6.74955
6.76062
6.75746
-6.75701
0.0193548
-6.73261
6.74541
-6.73554
6.73961
-6.7384
6.76401
6.75068
-6.76273
-0.00293711
-0.917052
1.38305
6.75475
-6.76122
6.74684
-6.74691
0.0112966
6.75189
-6.74571
0.0192795
6.73908
-6.75347
-0.0236475
6.74232
-6.74473
0.00391614
6.74383
-6.74586
0.738205
-1.54659
-6.58733
6.78894
1.07307
-2.83386
-6.0814
5.91353
-3.21244
-4.10954
1.14011
-0.740131
6.43784
-6.43867
-0.0354716
-2.00145
-6.14752
-6.22637
-7.00523
6.76514
-6.76378
0.0157399
6.77192
-6.76695
0.0177732
-6.74398
6.73901
-0.0142337
-3.89062
-3.26396
-7.10306
-6.44078
6.60428
-6.53687
0.111158
-6.74827
6.75384
-0.00444332
-6.74887
6.74601
-0.00986567
-6.72199
6.72989
3.99125
-6.62167
-6.74066
6.75045
-6.73374
6.74624
0.0201079
-6.67605
6.76815
0.110029
6.80167
-6.69894
0.214334
-6.73547
6.74353
6.7378
-6.74428
-6.7239
6.73735
-6.3286
6.14994
-6.36861
3.92638
-7.32211
5.44684
-0.182601
1.54591
-2.07869
-6.69132
6.46312
-1.10268
6.58176
-6.36012
0.500363
3.72786
-5.07638
3.8074
-4.45828
-2.07698
1.31727
6.74993
-6.74684
0.00421739
-5.70198
5.8886
-6.75158
6.75068
-0.00557297
-4.92463
6.11273
0.372394
6.75196
-6.75354
0.00240994
-5.41776
6.53635
2.84079
0.834365
1.80452
-1.40974
3.8207
-3.16574
1.94627
-1.16843
-3.06316
3.57872
0.757548
-2.77802
3.30477
0.800701
-6.48762
6.40011
0.280532
6.53898
-6.53522
0.0317057
6.70866
-5.32302
1.78403
2.0251
1.43595
-1.15659
0.470565
0.65091
4.93073
-3.95433
-0.687997
1.75584
1.53356
-1.06072
0.454121
-1.46814
4.31324
-3.39545
1.14751
1.53528
-4.80987
4.1443
-1.7877
6.46623
-6.815
-0.538997
-0.414885
-6.66385
5.9124
-0.750318
-2.59467
0.879946
-1.69522
0.875382
-1.00814
0.298694
-0.170238
5.55791
-4.4641
1.60359
1.64862
2.06216
-1.61221
2.3889
-1.90655
6.49726
-6.6768
-0.355919
0.978143
-3.04826
-2.01061
-1.93075
-6.74835
6.75761
0.00233462
-2.04365
0.618958
-0.885486
3.58621
3.68758
-0.977857
0.428818
-0.0138571
4.47736
3.12448
-1.10441
6.75678
-0.00203338
6.77463
3.21531
4.25105
6.80151
7.09184
0.00926319
-6.49877
6.52467
0.0192795
0.0036149
-0.303878
0.000677794
-6.80453
6.80551
6.74624
-6.74917
-1.15736
1.54957
0.512605
-0.0183762
0.546956
-6.7668
6.76913
-0.000677794
-6.725
6.77124
-1.58263
-0.534433
6.69103
-6.75791
0.0135559
0.0860044
0.00557297
6.47587
0.0677794
6.48883
-6.73313
0.0111459
-6.73328
6.73532
-6.74646
6.77719
-6.7625
0.00240994
0.0171708
-0.00700387
-6.74322
0.00775698
-6.75301
6.74804
-6.75746
-0.0152127
0.002184
6.73547
-6.74255
6.73509
-6.61545
-6.73569
7.08383
-0.078624
-1.21194
0.0447344
-0.89402
4.30654
-2.05482
3.2957
0.0277896
-1.03989
0.564407
6.50389
-0.615287
6.20799
-0.693149
-0.771563
1.20198
0.601234
-6.61279
6.65519
0.0782476
0.118313
0.924549
-0.737019
0.0957768
0.540053
1.08824
1.96218
0.552575
0.752228
-0.0141584
0.249077
-1.26351
-1.22478
-0.780293
0.776689
6.55969
-6.79444
-0.198217
-4.71444
-3.02093
-7.30911
-7.13047
-1.41016
-0.0208684
0.013268
-0.00881133
-2.038
0.0390108
0.0385588
0.0079076
0.0722981
-0.00489518
-0.0463913
-0.0165683
-0.0139324
-0.00899244
-0.00519681
-1.81254
0.828884
6.81748
-6.82238
-6.78721
6.82622
-6.81432
6.82223
-6.78404
6.79534
-6.81424
6.81131
6.7909
-6.80483
-6.82102
6.85958
6.80347
-6.7979
7.46869
2.31726
-1.54057
-6.79331
6.80905
-6.49598
6.51526
-7.49738
1.27101
-8.03638
-6.79745
6.8168
6.7796
-6.79617
6.81319
-6.80392
0.0198819
-6.51149
6.20763
-6.77169
6.78886
0.031781
3.65046
-4.29939
-1.79876
2.31137
0.518493
6.86759
-6.88599
0.0465404
6.80061
-6.80129
0.0165683
-6.78472
6.804
6.7851
-6.80874
-0.0291452
6.80061
-6.79669
0.0134053
-2.04077
0.404786
-6.55804
6.98685
-5.67245
4.08249
6.65332
-6.67231
-6.42323
6.37684
3.48445
-5.00024
-6.78239
6.77538
-0.00278649
6.87475
-7.02221
-0.0112177
6.79391
-6.79323
-0.00278649
6.81643
-6.79865
0.0125013
-6.80272
6.78849
-0.0273377
10.0614
-10.5619
6.80242
-6.80686
-1.2968
1.66248
-6.8037
6.79383
-0.0152127
2.75297
-4.2874
-1.43336
-1.50132
6.79941
-6.797
-0.00188276
6.80069
-6.79707
0.00323835
6.7857
-6.79956
-0.023045
0.576139
-1.36584
-6.79835
6.80054
-0.00745574
6.47181
-6.40403
0.0485753
6.91516
-6.80513
6.97044
-6.7561
0.4124
6.78992
-6.80513
6.78599
-6.79091
-6.65761
6.77477
-0.00115586
6.51051
-6.79582
-6.80182
6.82961
-6.466
6.57173
-0.0558004
2.20484
-1.01464
-6.79052
6.79828
-0.000602484
-6.80212
6.84685
0.0153633
4.04711
3.2693
7.17159
6.95688
6.8159
-6.81349
0.0188276
3.79136
-2.99065
-6.70941
6.98994
0.205748
6.49252
-6.46081
-0.00346457
-6.77854
6.78969
0.0103175
6.81409
-6.81612
0.0122756
2.1476
-1.52925
6.69413
-7.04992
-0.328187
6.8031
-6.81725
-0.0112213
-6.80792
6.80234
-0.0140831
6.79918
-6.79496
0.0144596
-6.80603
6.80837
-0.00369021
1.1456
-2.43255
-6.23396
4.49646
6.48267
-6.77076
-0.139677
-0.334569
-1.5009
2.05336
0.810513
-6.78894
6.80905
0.0134806
6.22282
-6.25831
-0.288705
6.58884
-6.47768
0.184812
0.133654
-0.0140077
-4.81189
6.59592
1.6743
-3.21487
0.0609233
-1.50459
1.03303
2.75832
-0.532596
0.0107694
-0.0064767
-5.16976
0.0198067
-5.03037
1.1183
-0.00594953
-2.5878
-0.0395417
-1.18583
-6.69985
6.77809
-0.842599
0.00610015
0.0111459
-5.38101
-2.66171
-7.87278
6.86206
-6.78977
-0.00655201
3.57815
3.22336
-1.30096
1.53483
2.10922
-3.64405
0.041722
1.31646
-0.0839711
-4.13289
5.73647
0.743461
1.31059
1.10565
-6.80588
6.81944
0.0346428
-0.00421739
0.547748
-1.65574
0.984684
0.845294
-1.08912
-6.50155
6.58755
-0.00632608
0.105962
-6.78216
-0.0229697
-6.79097
0.0364503
-0.0049705
-1.26851
1.71038
-0.886447
0.00308649
1.23981
1.51234
6.60751
-6.10715
2.71693
-3.42875
-0.0101292
-0.586443
5.77654
-6.39183
-3.82284
-3.28022
1.70131
6.62205
-6.50374
0.14437
2.88206
4.07482
6.46021
-3.94853
0.957874
-3.19098
-5.46212
4.7118
1.1454
-2.59731
0.0137069
6.96057
-4.93547
2.14868
2.53322
6.24557
-4.59695
2.11268
1.99897
0.879702
-2.39893
0.813024
5.64173
-6.05662
-2.39465
0.933323
6.86161
-7.05983
0.161767
-1.99307
1.15923
-2.75395
-2.74021
-2.13892
-3.42821
4.96349
2.30827
-2.68228
-3.66182
-3.46865
-6.25913
-7.29148
0.00316304
-1.9622
0.00594953
-1.69501
0.329215
-1.71739
-3.82344
0.632457
-2.67593
4.45296
2.71863
6.98618
6.79346
-0.898449
2.57275
-6.83345
6.89438
4.33766
-3.30462
6.47569
-6.88458
-6.8778
6.87185
0.274356
-7.4271
7.04532
-6.85724
6.87607
-0.497892
-2.31263
0.616972
-1.56876
6.54806
-7.43706
-0.913031
6.84459
-6.86756
6.92351
-6.87689
0.0901182
-6.85122
6.86779
-6.85521
6.85461
-0.0106188
-1.60478
0.0283265
-6.85868
6.85212
-0.00406677
6.83465
-6.84113
-1.65773
0.377559
4.50183
-2.96701
3.60339
1.37065
-6.84745
6.86086
6.91561
-6.87389
0.885726
-6.51608
6.84491
1.96342
6.82721
-6.86222
-4.96993
3.43238
-6.85077
6.88541
-1.29555
2.35104
3.73693
-7.11042
-6.84738
6.86726
-7.00353
6.99404
0.0396342
0.118772
6.84888
-6.85167
0.0014309
6.86041
-6.84808
0.0130274
6.86184
-6.87585
6.83638
-6.86372
6.85446
-6.84369
0.00278649
-6.85295
6.87276
1.87339
-4.05484
0.82377
-1.46845
-0.952171
-0.901227
6.87118
-6.86003
-6.86252
6.85506
-0.0103928
6.85898
-6.85574
0.00602484
6.83608
-6.85913
6.84217
-6.84289
-6.87125
6.86493
-0.0161918
-6.31177
6.36035
-1.21417
2.66473
-1.99422
0.726394
-1.37699
-6.35477
7.23447
-2.00201
1.11352
-6.84274
6.84582
-0.000540779
6.58324