/*--------------------------------*- C++ -*----------------------------------*\
  =========                 |
  \\      /  F ield         | OpenFOAM: The Open Source CFD Toolbox
   \\    /   O peration     | Website:  https://openfoam.org
    \\  /    A nd           | Version:  6
     \\/     M anipulation  |
\*---------------------------------------------------------------------------*/
FoamFile
{
    version     2.0;
    format      ascii;
    class       volVectorField;
    location    "0.0004";
    object      U;
}
// * * * * * * * * * * * * * * * * * * * * * * * * * * * * * * * * * * * * * //

dimensions      [0 1 -1 0 0 0 0];

internalField   nonuniform List<vector> 
3704
(
(650 -3.09378e-13 0)
(650 -3.73884e-13 0)
(650 -2.4472e-13 0)
(650 -2.07747e-13 0)
(650 5.00957e-14 0)
(650 1.14882e-13 0)
(650 1.42988e-13 0)
(650 9.34298e-14 0)
(650 -8.70469e-15 0)
(650 -1.18182e-13 0)
(650 -1.76523e-13 0)
(650 -1.5215e-13 0)
(650 -2.96161e-13 0)
(650 -1.97497e-13 0)
(650 -2.63136e-14 0)
(650 -6.89457e-13 0)
(650 -2.49381e-13 0)
(650 6.14847e-12 0)
(650 6.9023e-12 0)
(650 2.85719e-12 0)
(650 5.30483e-13 0)
(650 6.25831e-13 0)
(650 8.52146e-13 0)
(650 -1.06799e-13 0)
(650 -1.45637e-12 0)
(650 -5.69907e-13 0)
(650 1.04123e-12 0)
(650 7.39637e-13 0)
(650 5.05651e-13 0)
(650 -1.28854e-12 0)
(650 -1.76325e-12 0)
(650 -7.37337e-13 0)
(650 1.77048e-12 0)
(650 9.0295e-12 0)
(650 2.89036e-11 0)
(650 8.24045e-11 0)
(650 2.34671e-10 0)
(650 6.74985e-10 0)
(650 1.92473e-09 0)
(650 5.32492e-09 0)
(650 1.43936e-08 0)
(650 3.78489e-08 0)
(650 9.51168e-08 0)
(650 2.32321e-07 0)
(650 5.48489e-07 0)
(650 1.26993e-06 0)
(650 2.78135e-06 0)
(650 5.60308e-06 0)
(650 8.38464e-06 0)
(650 1.3384e-05 0)
(650 -2.62582e-13 0)
(650 -1.7771e-13 0)
(650 -3.30595e-13 0)
(650 -5.24544e-13 0)
(650 1.00326e-13 0)
(650 2.46128e-13 0)
(650 4.32504e-13 0)
(650 2.98272e-13 0)
(650 8.05567e-14 0)
(650 -2.07582e-13 0)
(650 -3.32544e-13 0)
(650 -4.25845e-13 0)
(650 -7.45229e-13 0)
(650 -5.80722e-13 0)
(650 -5.01836e-13 0)
(650 -1.71631e-12 0)
(650 -1.75737e-12 0)
(650 7.32611e-12 0)
(650 9.84729e-12 0)
(650 4.16979e-12 0)
(650 5.82741e-13 0)
(650 7.53083e-13 0)
(650 1.44535e-12 0)
(650 6.08559e-13 0)
(650 -2.28509e-12 0)
(650 -1.46955e-12 0)
(650 1.16499e-12 0)
(650 5.48862e-13 0)
(650 6.50273e-13 0)
(650 -9.65751e-13 0)
(650 -2.13689e-12 0)
(650 -9.98753e-13 0)
(650 2.05858e-12 0)
(650 1.05668e-11 0)
(650 3.26017e-11 0)
(650 8.97129e-11 0)
(650 2.46665e-10 0)
(650 6.95421e-10 0)
(650 1.97014e-09 0)
(650 5.39299e-09 0)
(650 1.45678e-08 0)
(650 3.85495e-08 0)
(650 9.6418e-08 0)
(650 2.35242e-07 0)
(650 5.56915e-07 0)
(650 1.30444e-06 0)
(650 2.87878e-06 0)
(650 5.55088e-06 0)
(650 8.19514e-06 0)
(650 1.32201e-05 0)
(650 -2.83924e-13 0)
(650 -1.96178e-13 0)
(650 -3.83087e-13 0)
(650 -6.37e-13 0)
(650 6.05684e-14 0)
(650 2.88184e-13 0)
(650 4.61869e-13 0)
(650 2.73219e-13 0)
(650 1.26194e-14 0)
(650 -1.28099e-13 0)
(650 -2.79639e-13 0)
(650 -5.65317e-13 0)
(650 -1.0168e-12 0)
(650 -1.07271e-12 0)
(650 -7.94762e-13 0)
(650 -3.23059e-12 0)
(650 -4.87629e-12 0)
(650 4.68195e-12 0)
(650 1.12486e-11 0)
(650 4.91356e-12 0)
(650 5.43967e-13 0)
(650 8.74519e-13 0)
(650 1.99405e-12 0)
(650 1.26277e-12 0)
(650 -2.91985e-12 0)
(650 -2.43433e-12 0)
(650 1.14909e-12 0)
(650 1.67157e-13 0)
(650 1.01407e-12 0)
(650 -4.23501e-13 0)
(650 -2.63496e-12 0)
(650 -1.28965e-12 0)
(650 2.33102e-12 0)
(650 1.18255e-11 0)
(650 3.50685e-11 0)
(650 9.3229e-11 0)
(650 2.47921e-10 0)
(650 6.88493e-10 0)
(650 1.95708e-09 0)
(650 5.3082e-09 0)
(650 1.44173e-08 0)
(650 3.86791e-08 0)
(650 9.65278e-08 0)
(650 2.3614e-07 0)
(650 5.64032e-07 0)
(650 1.34347e-06 0)
(650 2.98281e-06 0)
(650 5.5083e-06 0)
(650 8.16561e-06 0)
(650 1.28203e-05 0)
(650 -2.01779e-13 0)
(650 -2.56071e-13 0)
(650 -3.22793e-13 0)
(650 -5.71937e-13 0)
(650 -6.47429e-14 0)
(650 4.38819e-13 0)
(650 5.40512e-13 0)
(650 3.38752e-13 0)
(650 -1.0039e-13 0)
(650 -2.32405e-14 0)
(650 -2.0408e-13 0)
(650 -6.3338e-13 0)
(650 -1.22392e-12 0)
(650 -1.95528e-12 0)
(650 -1.26352e-12 0)
(650 -5.24363e-12 0)
(650 -1.13871e-11 0)
(650 -6.61591e-12 0)
(650 9.83959e-12 0)
(650 5.264e-12 0)
(650 4.40305e-13 0)
(650 8.67679e-13 0)
(650 2.65781e-12 0)
(650 2.18997e-12 0)
(650 -3.26864e-12 0)
(650 -3.62113e-12 0)
(650 8.28193e-13 0)
(650 3.03727e-13 0)
(650 8.31422e-13 0)
(650 1.83669e-13 0)
(650 -3.26185e-12 0)
(650 -1.65689e-12 0)
(650 2.38315e-12 0)
(650 1.25044e-11 0)
(650 3.67197e-11 0)
(650 9.5655e-11 0)
(650 2.44633e-10 0)
(650 6.65861e-10 0)
(650 1.92428e-09 0)
(650 5.1427e-09 0)
(650 1.41097e-08 0)
(650 3.86715e-08 0)
(650 9.61688e-08 0)
(650 2.3654e-07 0)
(650 5.72489e-07 0)
(650 1.38857e-06 0)
(650 3.08257e-06 0)
(650 5.46955e-06 0)
(650 8.25519e-06 0)
(650 1.22551e-05 0)
(650 -6.03694e-14 0)
(650 -1.50042e-13 0)
(650 -1.7016e-13 0)
(650 -5.42109e-13 0)
(650 -1.64958e-13 0)
(650 5.20196e-13 0)
(650 5.71451e-13 0)
(650 4.26765e-13 0)
(650 4.34326e-14 0)
(650 -1.55226e-13 0)
(650 -1.48951e-13 0)
(650 -7.90182e-13 0)
(650 -1.40814e-12 0)
(650 -2.94273e-12 0)
(650 -1.73362e-12 0)
(650 -7.92396e-12 0)
(650 -2.12177e-11 0)
(650 -3.20633e-11 0)
(650 4.71026e-12 0)
(650 4.69975e-12 0)
(650 1.92381e-13 0)
(650 7.30643e-13 0)
(650 3.25156e-12 0)
(650 3.44026e-12 0)
(650 -3.12122e-12 0)
(650 -4.63375e-12 0)
(650 1.46215e-13 0)
(650 9.82871e-13 0)
(650 3.2195e-14 0)
(650 9.87296e-13 0)
(650 -3.58705e-12 0)
(650 -2.04524e-12 0)
(650 2.26184e-12 0)
(650 1.21804e-11 0)
(650 3.67514e-11 0)
(650 9.51711e-11 0)
(650 2.32538e-10 0)
(650 6.15953e-10 0)
(650 1.84998e-09 0)
(650 4.83528e-09 0)
(650 1.34901e-08 0)
(650 3.8236e-08 0)
(650 9.46171e-08 0)
(650 2.35107e-07 0)
(650 5.79691e-07 0)
(650 1.43309e-06 0)
(650 3.15872e-06 0)
(650 5.40512e-06 0)
(650 8.38891e-06 0)
(650 1.18551e-05 0)
(-120.603 169.84 1.77104e-19)
(430.023 141.721 8.11359e-20)
(457.459 94.7376 -1.50485e-19)
(403.787 481.524 2.60344e-17)
(514.276 67.5452 -5.69149e-19)
(539.016 -100.289 9.69878e-18)
(548.555 -37.6044 0)
(625.35 -39.287 -5.42575e-18)
(526.762 -147.97 1.37144e-18)
(406.975 -212.039 8.35802e-17)
(328.164 -217.456 3.0845e-18)
(285.475 -183.387 -1.04558e-16)
(223.794 -119.357 -8.70458e-17)
(14.7485 -28.5966 0)
(5.60744 -115.126 7.25139e-18)
(-92.8753 209.874 0)
(423.851 151.649 -3.27871e-18)
(446.808 148.974 0)
(382.585 429.708 -2.06785e-17)
(496.162 71.9941 -2.92992e-17)
(532.542 -73.9395 -1.43288e-17)
(554.848 56.6071 -3.53904e-17)
(616.089 26.0993 1.49243e-18)
(518.215 -170.539 3.32448e-17)
(406.867 -229.479 -3.87646e-17)
(369.236 -223.768 -6.74154e-17)
(348.12 -186.981 -2.27634e-18)
(310.784 -125.748 6.87574e-17)
(1.85869 -41.3913 0)
(-1.62977 -118.731 6.40676e-18)
(1.31229 223.548 0)
(406.17 172.51 2.72025e-18)
(458.299 298.465 -3.21915e-17)
(432.02 406.249 0)
(479.888 109.384 5.0777e-17)
(523.64 -19.5714 2.14043e-17)
(534.73 44.1322 2.21288e-17)
(593.305 -40.5334 2.00299e-18)
(499.89 -208.907 -3.19062e-17)
(421.277 -228.796 -6.63775e-17)
(390.745 -209.562 1.27848e-16)
(384.374 -176.432 6.43328e-17)
(361.092 -121.97 5.44832e-17)
(-6.7911 -28.6374 2.80006e-17)
(-11.4173 -124.602 -2.95169e-18)
(53.1204 245.171 0)
(336.562 183.301 -9.40345e-18)
(329.946 436.986 2.60744e-17)
(503.585 367.565 2.08993e-19)
(498.841 123.508 5.91759e-18)
(529.385 -6.34014 -4.80888e-17)
(533.3 17.7875 2.43265e-17)
(572.563 -88.6275 2.10114e-18)
(503.848 -213.331 -5.80991e-17)
(426.594 -220.454 6.27871e-17)
(401.204 -205.677 -1.18774e-16)
(401.113 -173.597 -9.5386e-19)
(394.461 -130.288 -7.44797e-19)
(-15.0591 4.02987 -1.9981e-19)
(-26.6624 -131.84 -2.93024e-18)
(111.476 272.303 0)
(281.036 264.443 1.58223e-17)
(351.405 429.675 6.57384e-19)
(560.567 350.331 0)
(548.147 117.52 -2.29056e-17)
(530.592 -13.9235 6.0706e-17)
(541.59 -34.2719 -1.94473e-17)
(563.854 -95.8001 -1.18247e-18)
(504.081 -211.771 8.09472e-17)
(424.992 -217.701 8.50598e-19)
(402.633 -211.433 5.79145e-17)
(407.213 -176.755 -1.18606e-16)
(417.399 -138.809 -4.64663e-17)
(-39.1575 50.0541 -7.2967e-17)
(-52.4879 -139.884 4.93981e-18)
(-10.6989 -6.2534 0)
(-61.3312 -89.7977 -1.1769e-18)
(286.664 110.502 -8.14277e-18)
(330.05 163.698 9.37368e-17)
(323.087 229.908 0)
(382.379 234.805 7.9365e-17)
(479.337 189.073 2.94352e-17)
(577.995 69.742 -1.48342e-18)
(619.07 -129.339 -9.32683e-19)
(548.917 21.2137 1.52687e-19)
(555.873 -8.01102 5.65278e-19)
(464.126 -220.818 3.94794e-17)
(506.059 -344.053 -2.72236e-19)
(158.679 -64.6513 0)
(-216.26 -16.666 -1.15974e-17)
(-13.4581 10.6421 0)
(-25.3803 -91.8202 0)
(343.506 113.066 -7.67825e-17)
(382.872 146.626 -7.70046e-17)
(337.972 237.652 -1.21387e-18)
(366.977 254.387 2.21958e-18)
(468.82 208.716 3.08729e-17)
(588.793 40.4263 -3.3102e-19)
(582.493 -171.275 3.39587e-17)
(542.307 -28.3361 3.72233e-17)
(548.342 -28.6646 0)
(421.544 -246.032 -1.86845e-17)
(462.302 -357.701 2.58653e-17)
(173.149 -349.819 7.23215e-19)
(-125.05 -138.235 0)
(-20.8384 23.8882 0)
(10.9931 -107.223 -1.06294e-18)
(393.589 111.01 9.88648e-19)
(408.273 140.664 -6.28841e-17)
(364.976 193.478 0)
(377.622 267.179 -7.30919e-17)
(439.553 247.532 -9.50334e-17)
(567.438 110.113 0)
(557.155 -93.7679 -2.26944e-17)
(533.364 -57.2644 8.35646e-18)
(525.059 -68.9868 -4.33412e-19)
(422.82 -268.482 3.32242e-19)
(427.16 -410.885 -4.1769e-17)
(223.082 -550.166 0)
(-38.6804 -250.134 0)
(-33.0268 38.2065 0)
(28.1569 -127.058 0)
(419.074 120.428 5.82658e-17)
(418.591 142.464 6.11408e-17)
(378.743 180.096 6.71697e-17)
(384.4 262.726 -2.26441e-19)
(436.343 269.95 6.06691e-17)
(534.712 160.268 -9.06145e-19)
(549.723 -32.0634 2.38386e-17)
(541.023 -40.6743 -2.74087e-17)
(523.782 -90.1346 1.09292e-18)
(461.605 -267.722 -1.01088e-18)
(450.629 -401.553 2.10947e-17)
(257.397 -547.936 5.02025e-19)
(30.3396 -296.753 -1.25535e-17)
(-57.9602 55.6905 0)
(26.942 -149.486 -9.36474e-19)
(435.56 132.898 -1.49606e-19)
(420.509 148.662 -5.93044e-17)
(382.001 184.282 -6.19371e-17)
(381.496 255.148 -1.047e-18)
(435.546 278.299 2.87461e-17)
(511.483 179.327 8.65662e-19)
(560.511 29.9019 -2.12962e-17)
(562.222 -8.96662 3.05676e-17)
(539.211 -84.2872 2.84734e-17)
(523.668 -283.401 -9.60736e-19)
(517.654 -403.889 -2.24568e-17)
(328.234 -536.316 0)
(136.677 -294.494 9.78869e-18)
(650 -1.1684e-05 0)
(650 -1.09122e-05 0)
(650 -1.01044e-05 0)
(650 -4.87518e-06 0)
(650 -2.21479e-06 0)
(650 -9.15763e-07 0)
(650 -3.76947e-07 0)
(650 -1.46592e-07 0)
(650 -5.58811e-08 0)
(650 -2.07496e-08 0)
(650 -7.57464e-09 0)
(650 -2.70633e-09 0)
(650 -9.46743e-10 0)
(650 -3.20956e-10 0)
(650 -1.06449e-10 0)
(650 -3.60635e-11 0)
(650 -1.24288e-11 0)
(650 -4.1459e-12 0)
(650 -6.85734e-13 0)
(650 6.35242e-13 0)
(650 1.13871e-12 0)
(650 1.01481e-12 0)
(650 7.88138e-13 0)
(650 7.90464e-13 0)
(650 1.00791e-12 0)
(650 1.08022e-12 0)
(650 3.31847e-13 0)
(650 -1.77102e-13 0)
(650 -2.46015e-13 0)
(650 7.18555e-13 0)
(650 5.11922e-12 0)
(650 3.31863e-11 0)
(650 8.5181e-11 0)
(650 8.2656e-11 0)
(650 5.18355e-11 0)
(650 1.18008e-11 0)
(650 1.65339e-12 0)
(650 2.38825e-13 0)
(650 -7.18653e-13 0)
(650 -1.36318e-12 0)
(650 -1.11979e-12 0)
(650 1.91809e-13 0)
(650 7.74404e-13 0)
(650 8.32509e-13 0)
(650 5.78705e-13 0)
(650 5.54627e-13 0)
(650 5.80473e-13 0)
(650 6.62006e-13 0)
(650 6.8133e-13 0)
(650 5.16226e-13 0)
(650 -1.2408e-05 0)
(650 -1.0668e-05 0)
(650 -9.89674e-06 0)
(650 -5.01525e-06 0)
(650 -2.28958e-06 0)
(650 -9.29011e-07 0)
(650 -3.83579e-07 0)
(650 -1.47309e-07 0)
(650 -5.59706e-08 0)
(650 -2.07205e-08 0)
(650 -7.596e-09 0)
(650 -2.72586e-09 0)
(650 -9.62522e-10 0)
(650 -3.29006e-10 0)
(650 -1.11075e-10 0)
(650 -3.93475e-11 0)
(650 -1.39461e-11 0)
(650 -4.80211e-12 0)
(650 -6.31216e-13 0)
(650 6.74735e-13 0)
(650 1.27547e-12 0)
(650 7.33119e-13 0)
(650 6.96574e-13 0)
(650 1.07926e-12 0)
(650 1.26287e-12 0)
(650 8.44939e-13 0)
(650 -1.89367e-13 0)
(650 -5.44735e-13 0)
(650 -4.01392e-13 0)
(650 7.68227e-13 0)
(650 7.67427e-12 0)
(650 5.81795e-11 0)
(650 1.57616e-10 0)
(650 1.38284e-10 0)
(650 8.67398e-11 0)
(650 1.90203e-11 0)
(650 1.64826e-12 0)
(650 -7.16877e-13 0)
(650 -1.82836e-12 0)
(650 -1.82071e-12 0)
(650 -6.9336e-13 0)
(650 5.00557e-13 0)
(650 8.11339e-13 0)
(650 8.92705e-13 0)
(650 8.74896e-13 0)
(650 7.75555e-13 0)
(650 5.61603e-13 0)
(650 8.36515e-13 0)
(650 8.00604e-13 0)
(650 2.20504e-13 0)
(650 -1.2766e-05 0)
(650 -1.06397e-05 0)
(650 -9.72875e-06 0)
(650 -5.18366e-06 0)
(650 -2.35935e-06 0)
(650 -9.36356e-07 0)
(650 -3.8496e-07 0)
(650 -1.45172e-07 0)
(650 -5.47377e-08 0)
(650 -2.01114e-08 0)
(650 -7.387e-09 0)
(650 -2.65014e-09 0)
(650 -9.40819e-10 0)
(650 -3.23055e-10 0)
(650 -1.10495e-10 0)
(650 -4.0235e-11 0)
(650 -1.45485e-11 0)
(650 -5.1469e-12 0)
(650 -3.79047e-13 0)
(650 8.84263e-13 0)
(650 1.35432e-12 0)
(650 5.08494e-13 0)
(650 9.5734e-13 0)
(650 1.43284e-12 0)
(650 1.51615e-12 0)
(650 4.26947e-13 0)
(650 -5.76288e-13 0)
(650 -9.70246e-13 0)
(650 -5.19953e-13 0)
(650 9.90257e-13 0)
(650 1.1029e-11 0)
(650 9.45014e-11 0)
(650 2.80317e-10 0)
(650 2.17024e-10 0)
(650 1.37174e-10 0)
(650 2.90327e-11 0)
(650 1.1486e-12 0)
(650 -1.8096e-12 0)
(650 -2.88976e-12 0)
(650 -2.29064e-12 0)
(650 -1.5576e-13 0)
(650 8.44518e-13 0)
(650 8.98546e-13 0)
(650 9.993e-13 0)
(650 8.36248e-13 0)
(650 8.70066e-13 0)
(650 5.85951e-13 0)
(650 9.07929e-13 0)
(650 7.18677e-13 0)
(650 9.15088e-14 0)
(650 -1.2974e-05 0)
(650 -1.07442e-05 0)
(650 -9.56385e-06 0)
(650 -5.39006e-06 0)
(650 -2.43348e-06 0)
(650 -9.44587e-07 0)
(650 -3.84549e-07 0)
(650 -1.41591e-07 0)
(650 -5.2819e-08 0)
(650 -1.91924e-08 0)
(650 -7.07263e-09 0)
(650 -2.5253e-09 0)
(650 -8.97502e-10 0)
(650 -3.10508e-10 0)
(650 -1.08171e-10 0)
(650 -4.0338e-11 0)
(650 -1.5165e-11 0)
(650 -5.45528e-12 0)
(650 -5.37071e-14 0)
(650 1.29726e-12 0)
(650 1.30683e-12 0)
(650 4.64378e-13 0)
(650 1.29359e-12 0)
(650 1.86654e-12 0)
(650 1.76413e-12 0)
(650 5.44198e-14 0)
(650 -1.09897e-12 0)
(650 -1.35915e-12 0)
(650 -6.62397e-13 0)
(650 1.39401e-12 0)
(650 1.60378e-11 0)
(650 1.45924e-10 0)
(650 5.01483e-10 0)
(650 3.3498e-10 0)
(650 2.12587e-10 0)
(650 4.45714e-11 0)
(650 -3.91189e-13 0)
(650 -3.31488e-12 0)
(650 -4.03769e-12 0)
(650 -2.25963e-12 0)
(650 3.90473e-14 0)
(650 8.23684e-13 0)
(650 1.10102e-12 0)
(650 1.18547e-12 0)
(650 8.03799e-13 0)
(650 8.57809e-13 0)
(650 6.33005e-13 0)
(650 7.41312e-13 0)
(650 7.9551e-13 0)
(650 2.12697e-13 0)
(650 -1.33578e-05 0)
(650 -1.08212e-05 0)
(650 -9.3848e-06 0)
(650 -5.59429e-06 0)
(650 -2.50907e-06 0)
(650 -9.48401e-07 0)
(650 -3.80229e-07 0)
(650 -1.35335e-07 0)
(650 -4.96474e-08 0)
(650 -1.77294e-08 0)
(650 -6.55949e-09 0)
(650 -2.31246e-09 0)
(650 -8.15616e-10 0)
(650 -2.85496e-10 0)
(650 -1.01835e-10 0)
(650 -3.88692e-11 0)
(650 -1.55096e-11 0)
(650 -5.55864e-12 0)
(650 2.64864e-13 0)
(650 1.74295e-12 0)
(650 1.26004e-12 0)
(650 3.94783e-13 0)
(650 1.61249e-12 0)
(650 2.17162e-12 0)
(650 1.99605e-12 0)
(650 -1.89183e-13 0)
(650 -1.53363e-12 0)
(650 -1.60481e-12 0)
(650 -7.80562e-13 0)
(650 1.99013e-12 0)
(650 2.27337e-11 0)
(650 2.02863e-10 0)
(650 8.67728e-10 0)
(650 4.90028e-10 0)
(650 3.12164e-10 0)
(650 6.48935e-11 0)
(650 -4.62696e-12 0)
(650 -5.48006e-12 0)
(650 -4.95987e-12 0)
(650 -2.04992e-12 0)
(650 6.18471e-14 0)
(650 6.16864e-13 0)
(650 1.35365e-12 0)
(650 1.25991e-12 0)
(650 7.71124e-13 0)
(650 8.48921e-13 0)
(650 5.78677e-13 0)
(650 6.69061e-13 0)
(650 7.76802e-13 0)
(650 2.20158e-13 0)
(650 6.04773e-13 0)
(650 -2.0876e-13 0)
(650 -2.56721e-13 1.08353e-17)
(650 -2.06108e-14 -1.12268e-17)
(650 -5.85432e-14 0)
(650 2.01086e-13 0)
(650 3.63195e-13 1.10343e-17)
(650 -1.47097e-13 4.4069e-17)
(650 1.50718e-13 0)
(650 4.7009e-13 0)
(650 -1.0712e-14 -2.14102e-17)
(650 -8.20736e-13 -2.15532e-17)
(650 -2.23066e-13 -2.16339e-17)
(650 -3.48042e-11 -2.15337e-17)
(650 -4.21487e-10 -2.10496e-17)
(650 -1.26992e-11 2.0831e-17)
(650 -1.54821e-12 4.1707e-17)
(650 3.56924e-12 4.16284e-17)
(650 -3.15298e-12 0)
(650 9.65064e-13 2.09346e-17)
(650 1.07752e-12 -4.18685e-17)
(650 -7.6699e-13 -2.09259e-17)
(650 1.23985e-11 0)
(650 6.77411e-11 2.08921e-17)
(650 2.75162e-10 -2.09307e-17)
(650 2.26179e-09 2.09537e-17)
(650 2.83826e-08 -2.09901e-17)
(650 1.88107e-07 4.23831e-17)
(650 1.55912e-06 0)
(650 3.1963e-06 0)
(650 2.13541e-05 3.76909e-17)
(650 1.46047e-05 -1.072e-17)
(650 5.80202e-07 -1.09909e-17)
(650 2.12405e-06 -2.25451e-17)
(650 3.75004e-06 0)
(650 -1.59868e-05 0)
(650 -7.56083e-06 -1.04789e-17)
(650 -7.478e-07 0)
(650 -3.89904e-08 2.09559e-17)
(650 -3.10016e-10 -9.66557e-29)
(650 -8.92422e-13 2.07304e-17)
(650 -2.43138e-12 -2.07228e-17)
(650 -1.03741e-12 2.08824e-17)
(650 -6.32787e-13 5.43638e-32)
(650 2.03252e-12 0)
(650 -8.60186e-12 4.1546e-17)
(650 1.72866e-08 0)
(650 0.0145778 -2.08637e-17)
(649.974 0.0785002 0)
(650.254 -3.5664 -1.07405e-17)
(651.905 1.08134 -3.37979e-17)
(645.713 1.54235 0)
(649.101 -2.12048 0)
(646.109 -2.26592 4.394e-17)
(609.028 -2.80336 0)
(486.164 13.9789 8.7004e-18)
(495.899 -153.579 0)
(542.046 135.927 5.42274e-17)
(378.59 213.452 0)
(300.503 360.281 -1.23124e-17)
(378.777 322.666 1.02934e-17)
(649.954 0.043804 -2.9065e-17)
(511.378 350.542 0)
(599.681 238.643 -3.89594e-18)
(573.347 89.139 -1.04421e-17)
(573.912 -27.2727 -7.6359e-18)
(561.613 -82.4586 0)
(552.37 -127.116 -2.33239e-17)
(464.864 -221.268 -2.30462e-17)
(399.658 -263.76 -1.8669e-17)
(371.177 -261.157 1.72009e-17)
(400.168 -204.735 1.87765e-17)
(430.928 -144.799 0)
(-163.251 227.548 4.35496e-17)
(-203.661 -178.225 1.20517e-17)
(519.107 -28.605 6.23884e-18)
(648.197 1.55419 0)
(649.988 0.00762059 9.13505e-18)
(650 1.06075e-05 0)
(650 1.00315e-07 0)
(650 1.85771e-09 0)
(650 4.45366e-11 0)
(650 5.21184e-12 -1.49927e-17)
(650 6.98858e-13 0)
(650 3.11718e-13 -7.62086e-18)
(650 2.02637e-05 -1.93933e-17)
(650 -6.51171e-06 1.09329e-17)
(-38.6786 -250.294 -1.47833e-16)
(650 -5.19101e-13 0)
(650 -3.80153e-13 0)
(650 -1.71381e-13 -2.15399e-17)
(650 -1.12755e-13 0)
(650 -2.29417e-13 1.09677e-17)
(650 -2.78567e-14 -3.50336e-19)
(650 -4.08618e-16 3.3351e-17)
(650 -2.67647e-15 -3.37743e-17)
(650 1.28969e-13 3.17605e-17)
(650 -2.03419e-13 -2.19169e-17)
(650 -2.88768e-14 0)
(650 1.59844e-13 -2.13914e-17)
(650 -5.27482e-14 -2.14777e-17)
(650 -1.26437e-12 0)
(650 8.7169e-12 4.32554e-17)
(650 -1.69775e-10 2.12557e-17)
(650 -1.97035e-10 -2.08915e-17)
(650 -1.87075e-12 4.16431e-17)
(650 2.29951e-12 -2.08564e-17)
(650 -4.1619e-13 2.08265e-17)
(650 4.8042e-13 2.08732e-17)
(650 1.13321e-12 -5.20645e-31)
(650 -2.74646e-12 2.09266e-17)
(650 4.01661e-12 0)
(650 2.89228e-11 0)
(650 1.15735e-10 -2.09228e-17)
(650 8.75127e-10 0)
(650 8.48685e-09 2.09632e-17)
(650 7.83793e-08 2.10528e-17)
(650 6.13791e-07 0)
(650 3.16367e-06 -2.17197e-17)
(650 -2.06455e-13 0)
(650 1.0249e-05 2.26837e-17)
(650 -4.07194e-06 1.043e-17)
(650 4.73176e-06 2.24611e-17)
(650 5.37744e-07 1.11401e-17)
(650 -5.03863e-13 0)
(650 -3.38283e-06 0)
(650 -4.86444e-06 0)
(650 -1.75721e-06 -1.98531e-17)
(-2.01146 238.195 -6.4603e-16)
(650 -1.50032e-06 1.92488e-17)
(650 -1.64716e-07 2.09482e-17)
(650 -2.53514e-09 0)
(650 -3.8392e-11 2.78379e-29)
(650 1.85535e-12 -2.07453e-17)
(650 -3.45436e-12 2.391e-30)
(650 3.55394e-12 0)
(650 -1.50159e-12 0)
(650 -4.00092e-12 2.07174e-17)
(650 1.23873e-11 0)
(650 1.56273e-05 2.0861e-17)
(649.999 0.103438 0)
(649.843 -2.52589 0)
(650.821 -1.14431 -2.07885e-17)
(652.04 0.7867 -2.23665e-17)
(647.136 -3.03937 0)
(648.089 -0.0234971 0)
(637.819 -4.1457 -1.42693e-17)
(537.896 0.0899669 0)
(477.641 -91.3739 0)
(450.01 -14.8897 0)
(370.105 281.493 2.14284e-17)
(639.535 90.9851 -5.0531e-19)
(523.087 348.058 0)
(359.938 297.342 -1.80611e-17)
(643.795 272.996 3.29711e-18)
(598.829 -39.4388 6.51993e-18)
(597.684 -107.097 0)
(565.778 -143.316 -1.58726e-17)
(508.607 -219.395 6.21565e-17)
(424.809 -270.701 1.61545e-18)
(373.468 -289.604 -3.55886e-17)
(360.101 -276.811 -2.7772e-17)
(388.963 -215.513 0)
(397.11 -146.564 0)
(622.59 19.4545 1.57034e-17)
(649.821 0.100995 -1.15808e-17)
(649.999 0.000424711 0)
(650 -0.000153708 3.19186e-18)
(650 5.72545e-07 4.22732e-25)
(650 -3.59126e-07 1.65866e-17)
(650 1.36296e-08 -2.44134e-27)
(650 3.08259e-10 1.42017e-17)
(650 1.85322e-11 -3.57275e-17)
(650 1.37753e-12 -2.26913e-17)
(650 5.31316e-13 0)
(650 5.61709e-14 -1.11675e-17)
(650 5.70715e-14 -1.11817e-17)
(650 -9.26008e-14 1.24641e-17)
(650 -4.76537e-13 4.22377e-20)
(650 -4.22787e-13 0)
(650 -1.76828e-13 0)
(650 1.02203e-12 2.1415e-17)
(650 8.03319e-12 0)
(650 -4.77496e-11 -2.16162e-17)
(650 -1.74706e-09 -5.71689e-30)
(650 -4.25576e-09 2.09615e-17)
(650 -4.07731e-11 -4.15426e-17)
(650 -6.1341e-12 -2.08073e-17)
(650 1.4293e-12 -4.16098e-17)
(650 2.5454e-12 1.01808e-20)
(650 1.64014e-12 2.08929e-17)
(650 3.05541e-12 1.02405e-20)
(650 1.50277e-12 4.07229e-20)
(650 4.60673e-12 0)
(650 1.28775e-12 -2.0871e-17)
(650 -1.54863e-10 2.09359e-17)
(650 -1.86734e-09 -2.09502e-17)
(650 -9.15653e-09 2.10742e-17)
(650 -1.58936e-08 -2.14981e-17)
(650 4.3246e-07 0)
(650 6.18861e-06 0)
(650 3.79056e-06 -2.18522e-17)
(650 2.29473e-07 1.12757e-17)
(650 4.4624e-06 -1.53018e-18)
(650 -1.26871e-07 -6.3612e-19)
(650 8.65003e-09 -1.6321e-19)
(650 -2.47858e-11 4.16406e-17)
(650 -1.93195e-11 -2.07153e-17)
(650 5.03475e-12 2.06848e-17)
(650 -2.72427e-12 0)
(650 1.79242e-12 -2.0733e-17)
(650 1.85922e-12 -2.07046e-17)
(650 3.10401e-12 -2.08354e-17)
(650 3.76992e-07 -2.08468e-17)
(650 0.0146428 0)
(649.917 -0.144038 0)
(650.8 -1.22896 3.10213e-17)
(653.895 -3.10484 3.01027e-17)
(646.059 0.123928 0)
(648.222 0.441667 4.20939e-18)
(643.33 -1.74892 -2.52657e-17)
(582.625 9.1969 0)
(496.37 98.2713 -1.13901e-17)
(528.093 145.725 0)
(542.884 300.096 -1.47175e-17)
(649.938 0.30376 -6.32268e-21)
(410.21 -1.91584 -8.63607e-18)
(649.427 -0.463923 1.22124e-17)
(649.998 -0.00256588 -3.91504e-18)
(650 -5.91209e-06 -2.08018e-17)
(650 -2.89562e-08 1.41082e-17)
(650 1.45252e-10 -1.68478e-17)
(650 5.45038e-12 1.53681e-17)
(650 -1.52419e-13 2.52859e-17)
(650 2.51607e-12 4.31443e-17)
(650 6.58651e-12 2.15733e-17)
(650 -4.79254e-10 -2.16887e-17)
(650 -7.37195e-09 2.11821e-17)
(650 -3.91254e-10 8.13665e-20)
(650 -1.11336e-11 -4.14477e-17)
(650 -3.91737e-12 1.11627e-30)
(650 4.81574e-12 2.0378e-20)
(650 -2.26644e-13 -4.16951e-17)
(650 2.3801e-13 -3.30251e-30)
(650 2.40011e-12 2.09317e-17)
(650 1.76522e-12 0)
(650 -3.00346e-13 2.03899e-20)
(650 -3.24058e-11 2.09127e-17)
(650 -4.71061e-10 0)
(650 -4.59551e-09 -2.09549e-17)
(650 -1.17707e-08 -4.24696e-17)
(650 -1.60532e-08 3.40104e-19)
(650 2.26214e-06 2.18175e-17)
(650 -2.0941e-06 1.02315e-17)
(650 4.13292e-06 0)
(650 8.46571e-07 1.38394e-18)
(650 6.74404e-13 4.13801e-17)
(650 3.25393e-12 -4.1535e-17)
(650 -2.28956e-12 2.07772e-17)
(650 -9.72017e-13 0)
(650 3.99366e-12 -2.06786e-17)
(650 6.34838e-10 2.02385e-20)
(650 0.000373567 2.08117e-17)
(649.997 0.042454 4.04132e-20)
(649.854 -0.591776 0)
(650.542 -1.66002 2.11617e-17)
(647.751 -4.1446 7.12844e-19)
(649.037 2.17366 0)
(648.31 0.145665 -1.92344e-17)
(627.792 0.762182 1.58759e-17)
(509.766 41.0014 -4.32111e-18)
(517.355 90.7696 0)
(466.619 249.56 -1.02609e-17)
(397.011 330.327 0)
(650 1.35231e-13 -4.27412e-17)
(650 4.52872e-13 2.10893e-17)
(650 3.40021e-13 -1.01936e-17)
(650 -4.65065e-06 -1.1155e-17)
(650 -1.70974e-11 -2.07482e-17)
(650 2.84468e-10 -2.09333e-17)
(650 9.9493e-08 -4.15329e-17)
(650 2.84567e-13 0)
(650 2.65892e-12 3.56207e-17)
(650 5.3035e-11 0)
(649.961 -0.0370524 -9.96067e-18)
(640.365 -9.91472 0)
(650 -8.3508e-10 -1.08588e-17)
(650 -7.93498e-13 2.16531e-17)
(650 -2.51574e-13 0)
(650 3.76529e-14 2.01571e-17)
(650 7.24583e-14 0)
(650 -2.38765e-13 -2.21922e-17)
(650 -8.20272e-07 1.0963e-18)
(650 3.71967e-06 -3.41083e-17)
(650 -1.20618e-12 3.34206e-19)
(650 -2.34272e-13 -2.1308e-17)
(650 5.81107e-08 2.13452e-17)
(650 -9.05987e-13 0)
(650 -5.16016e-12 0)
(650 1.18997e-06 2.21878e-17)
(650 2.64853e-11 -2.15091e-17)
(650 4.64808e-11 -2.15756e-17)
(650 1.59699e-08 0)
(650 -1.36109e-07 2.08459e-17)
(650 -1.823e-09 -4.55399e-28)
(650 1.37277e-10 5.06466e-21)
(650 -4.07214e-13 2.0943e-17)
(650 1.74382e-12 -2.0817e-17)
(650 -1.93237e-14 -2.08647e-17)
(650 1.998e-12 2.08759e-17)
(650 3.8487e-12 -2.08344e-17)
(650 -2.12196e-12 -2.08594e-17)
(650 -2.99538e-11 2.09016e-17)
(650 -2.10858e-10 0)
(650 -1.2822e-09 -2.09484e-17)
(650 -2.06844e-08 2.10409e-17)
(650 -1.01353e-08 4.2688e-17)
(650 -1.00319e-06 -2.22951e-17)
(650 1.19315e-06 2.10464e-17)
(650 -2.45427e-07 -2.26295e-17)
(650 9.63891e-07 -1.87361e-17)
(650 -4.04931e-13 -1.23645e-31)
(650 -1.36643e-12 2.1085e-17)
(650 -2.525e-12 -2.12377e-17)
(650 -4.73319e-11 2.07501e-17)
(650 -5.31523e-06 -4.62318e-18)
(650 1.08822e-06 -2.32144e-17)
(650 1.49276e-06 2.20113e-17)
(650 -7.5295e-13 2.08356e-17)
(650 -2.89187e-13 -2.1672e-17)
(650 -3.36548e-13 2.352e-17)
(650 -9.47454e-13 2.17489e-17)
(582.214 -68.4247 5.54534e-18)
(650 -2.5547e-13 -1.76837e-17)
(650 -2.02734e-10 -2.07454e-17)
(650 1.19226e-11 2.07823e-17)
(650 -1.16513e-11 2.0716e-17)
(650 3.33018e-12 0)
(650 -1.21494e-09 2.08463e-17)
(650 1.50412e-10 -2.08598e-17)
(650 3.27133e-12 0)
(650 -4.35991e-12 0)
(650 -1.07305e-12 2.07776e-17)
(650 5.60015e-12 -2.06061e-17)
(650 -4.09753e-11 -2.07363e-17)
(650 5.50439e-07 0)
(650 0.000494035 -4.06047e-20)
(649.977 0.162144 0)
(650.283 -1.30121 -1.64079e-19)
(649.911 -5.45519 2.01647e-17)
(649.187 3.18673 -1.45449e-17)
(647.203 3.73966 -2.00546e-17)
(636.568 20.6738 -1.42627e-17)
(598.029 109.411 -8.98924e-18)
(575.495 177.284 -1.39237e-17)
(559.529 189.017 0)
(522.899 257.659 -6.59997e-18)
(352.85 296.932 9.90262e-18)
(650 -7.09995e-14 4.41489e-17)
(650 -2.66731e-13 6.27021e-32)
(642.981 36.2523 0)
(585.147 299.069 0)
(496.056 -73.7137 1.79924e-17)
(658.188 201.397 -6.64835e-18)
(669.24 247.228 2.0847e-17)
(680.023 53.4436 1.34802e-17)
(650 -7.3818e-05 4.44832e-17)
(649.484 -0.119277 0)
(650 9.25345e-09 2.03665e-17)
(649.997 -0.000401363 -1.07576e-17)
(650 0.000115388 -3.27756e-17)
(643.068 -0.367245 -1.51249e-17)
(649.527 -0.488396 -6.66703e-18)
(650 6.66901e-08 -3.8547e-17)
(650 -9.11504e-10 1.10861e-17)
(650 6.63492e-07 -1.52298e-17)
(650 -6.97821e-08 2.05317e-17)
(650 1.1432e-11 4.35428e-17)
(649.96 -0.0071953 -1.84038e-17)
(649.998 -0.00187271 2.39393e-17)
(650 2.06223e-12 -3.60702e-17)
(650 1.84463e-10 -1.247e-17)
(650 1.07457e-10 -1.1395e-17)
(650 1.20136e-12 2.15971e-17)
(650 -3.09428e-11 0)
(650 4.36093e-12 -3.79645e-18)
(650 -1.28808e-12 1.32363e-17)
(650 -1.44616e-13 0)
(621.412 -69.5563 -2.42388e-17)
(601.704 -138.302 0)
(532.682 -196.197 0)
(465.537 -227.166 -3.70191e-17)
(401.544 -220.689 2.72443e-17)
(409.976 -152.558 -1.36534e-17)
(534.98 -154.232 2.5717e-17)
(579.209 -129.426 1.98595e-17)
(615.713 -66.0505 -1.94816e-17)
(570.005 -40.5537 -1.83707e-17)
(650 -1.14205e-06 -1.91121e-25)
(650 1.90345e-07 -1.6588e-25)
(650 -7.1039e-15 -2.26543e-17)
(650 1.1727e-13 0)
(650 -4.6481e-14 2.3911e-17)
(650 -9.74995e-09 2.09775e-17)
(650 7.46451e-10 -3.27256e-19)
(650 -4.33707e-14 0)
(650 -2.27744e-06 2.08019e-17)
(650 -5.18043e-07 -1.97573e-17)
(424.071 253.756 0)
(444.693 261.936 0)
(535.085 236.96 0)
(650 -1.12973e-12 1.03318e-17)
(650 4.69112e-10 2.07024e-17)
(650 5.31881e-11 -2.07635e-17)
(650 -1.60043e-13 3.53152e-19)
(650 9.89314e-14 7.25395e-19)
(638.111 -5.03045 1.60522e-18)
(650 -1.3013e-06 3.3746e-17)
(650 -2.3756e-09 -2.06686e-17)
(650 -6.8282e-11 0)
(650 -8.82062e-12 -2.18199e-17)
(650 -9.89832e-13 -5.23143e-31)
(650 5.09225e-07 -2.9768e-17)
(650 4.1052e-12 -4.14172e-17)
(650 1.13918e-11 -1.7063e-17)
(650 -2.2607e-13 0)
(650 2.18979e-10 -2.15137e-17)
(650 -4.53913e-09 1.6849e-19)
(650 -1.15092e-07 0)
(650 -1.71432e-08 2.06691e-17)
(650 5.77407e-10 0)
(650 6.39857e-11 -2.08471e-17)
(650 4.71266e-12 -2.08232e-17)
(650 -2.14445e-12 -2.09456e-17)
(650 -1.98645e-12 0)
(650 4.56887e-12 2.08664e-17)
(650 -1.21016e-13 0)
(650 -1.11319e-11 -2.03821e-20)
(650 -4.24273e-11 2.08904e-17)
(650 -6.26569e-10 0)
(650 -6.81935e-09 -2.10587e-17)
(650 -5.24309e-08 0)
(650 -3.62628e-07 -3.39748e-19)
(650 -1.64375e-06 -2.21923e-17)
(650 -7.69329e-07 1.06502e-17)
(530.354 240.483 0)
(650 -1.25092e-06 6.6566e-19)
(650 1.25112e-06 -4.81194e-27)
(650 2.18489e-06 2.10356e-17)
(650 2.01704e-06 -1.12205e-17)
(650 2.16105e-06 -2.37296e-17)
(650 2.43651e-06 0)
(650 -5.16257e-10 4.3001e-17)
(650 8.42914e-07 1.17637e-17)
(650 -4.46807e-08 2.15387e-17)
(650 -2.08148e-12 9.66282e-18)
(650 -8.60335e-08 -8.19326e-20)
(650 2.3959e-14 -4.06203e-20)
(650 -3.65547e-12 0)
(650 2.10184e-12 -2.06474e-17)
(650 2.6929e-12 0)
(650 8.93415e-13 2.02518e-20)
(650 2.48206e-12 -2.07773e-17)
(650 1.52522e-12 0)
(650 5.90552e-12 2.07357e-17)
(650 -1.25103e-08 -2.07443e-17)
(650 6.1979e-05 2.08488e-17)
(650 0.0262722 -2.06665e-17)
(649.588 -0.311653 0)
(649.429 -3.16869 -2.05254e-17)
(650.668 -0.920154 1.13605e-17)
(651.061 -0.961951 2.30931e-17)
(647.383 3.37436 -3.9784e-18)
(645.496 5.76086 1.24961e-17)
(613.641 55.9314 -1.888e-17)
(590.424 158.907 1.22115e-17)
(576.777 146.931 1.87924e-17)
(565.003 230.542 -1.16409e-17)
(650 -1.10295e-10 0)
(650 -1.43209e-11 -2.08678e-17)
(651.493 -61.0131 1.67967e-17)
(650 -8.8016e-13 -1.05835e-17)
(650 -3.63172e-13 -2.30331e-17)
(649.965 -0.0355071 -1.03404e-17)
(650 1.60087e-07 0)
(650 -5.67228e-12 -2.97456e-31)
(650 -4.35326e-13 2.21286e-17)
(650 -6.75983e-13 -2.26325e-17)
(650 -2.53226e-13 0)
(650 -2.77043e-07 8.89266e-18)
(650 -3.43769e-12 0)
(650 4.58892e-06 -3.79852e-17)
(650 1.42216e-09 0)
(650 -8.66789e-13 -2.27686e-18)
(650 3.93122e-10 0)
(582.817 -198.178 0)
(641.55 -129.739 2.17531e-17)
(498.113 -239.673 2.65754e-17)
(423.821 -242.773 -1.20805e-17)
(389.122 -195.035 3.90698e-18)
(591.191 -56.4119 1.8254e-17)
(516.692 -167.089 5.85641e-17)
(650 -2.62319e-06 1.42139e-26)
(581.821 148.03 -1.51517e-17)
(607.077 71.1835 3.36748e-17)
(644.947 9.56328 -6.53371e-18)
(650 -4.0224e-07 1.39053e-18)
(575.622 -74.0208 0)
(650 5.7964e-10 -1.85966e-17)
(650 8.2079e-06 4.2062e-17)
(570.517 174.895 -5.93598e-18)
(597.171 119.54 6.29025e-18)
(626.558 36.0092 1.69469e-17)
(646.909 4.54192 -1.15366e-17)
(647.298 1.36856 0)
(650.676 -1.00599 -1.96108e-17)
(650.41 -0.657453 0)
(649.833 -0.0515432 5.01162e-21)
(650 0.00163386 2.07497e-17)
(650 8.1252e-06 0)
(650 -5.70433e-10 4.04304e-20)
(650 -1.15994e-07 -2.2031e-17)
(650 -4.54952e-12 7.68684e-31)
(650 1.23535e-12 -2.0742e-17)