/*--------------------------------*- C++ -*----------------------------------*\
  =========                 |
  \\      /  F ield         | OpenFOAM: The Open Source CFD Toolbox
   \\    /   O peration     | Website:  https://openfoam.org
    \\  /    A nd           | Version:  6
     \\/     M anipulation  |
\*---------------------------------------------------------------------------*/
FoamFile
{
    version     2.0;
    format      ascii;
    class       surfaceScalarField;
    location    "0.0003";
    object      phi;
}
// * * * * * * * * * * * * * * * * * * * * * * * * * * * * * * * * * * * * * //

dimensions      [1 0 -1 0 0 0 0];

internalField   nonuniform List<scalar> 
5786
(
0.150621
-4.41314e-15
0.150621
-5.55112e-16
0.150621
4.71845e-16
0.150621
-5.19029e-15
0.150621
6.38378e-16
0.150621
-1.52656e-15
0.150621
-2.19269e-15
0.150621
3.02536e-15
0.150621
5.19029e-15
0.150621
6.38378e-15
0.150621
4.77396e-15
0.150621
-2.13718e-15
0.150621
-7.21645e-16
0.150621
-4.02456e-15
0.150621
-5.10703e-15
0.150621
-2.498e-16
0.150621
1.7486e-15
0.150621
4.05231e-15
0.150621
1.88738e-15
0.150621
-1.08524e-14
0.150621
-4.71845e-15
0.150621
5.82867e-15
0.150621
6.10623e-16
0.150621
5.32907e-15
0.150621
1.33227e-15
0.150621
4.35763e-15
0.150621
6.60583e-15
0.150621
1.52378e-14
0.150621
1.36835e-14
0.150621
7.27196e-15
0.150621
-1.27121e-14
0.150621
-3.23352e-14
0.150621
-5.37903e-14
0.150621
-8.49598e-14
0.150621
-1.3442e-13
0.150621
-1.22152e-13
0.150621
3.39423e-13
0.150621
2.47605e-12
0.150621
1.03875e-11
0.150621
3.84497e-11
0.150621
1.30224e-10
0.150621
4.10089e-10
0.150621
1.21076e-09
0.150621
3.35179e-09
0.150621
8.62704e-09
0.150621
2.1419e-08
0.150621
5.10349e-08
0.150621
1.11192e-07
0.150621
2.0715e-07
4.13329e-07
0.150621
-2.38698e-15
0.150621
-1.36002e-15
0.150621
-2.22045e-15
0.150621
-9.40914e-15
0.150621
-4.46865e-15
0.150621
-1.83187e-15
0.150621
-5.7454e-15
0.150621
5.55112e-16
0.150621
2.44249e-15
0.150621
9.96425e-15
0.150621
7.41074e-15
0.150621
-1.38778e-16
0.150621
-2.19269e-15
0.150621
-4.32987e-15
0.150621
-7.60503e-15
0.150621
-3.21965e-15
0.150621
4.7462e-15
0.150621
4.16334e-15
0.150621
6.4948e-15
0.150621
-1.16851e-14
0.150621
-8.63198e-15
0.150621
9.21485e-15
0.150621
-1.249e-15
0.150621
8.18789e-15
0.150621
9.99201e-16
0.150621
-2.77556e-17
0.150621
8.52096e-15
0.150621
1.31284e-14
0.150621
1.48492e-14
0.150621
1.113e-14
0.150621
-6.63358e-15
0.150621
-2.64511e-14
0.150621
-5.18752e-14
0.150621
-7.73825e-14
0.150621
-1.10745e-13
0.150621
-3.8719e-14
0.150621
4.88859e-13
0.150621
3.10071e-12
0.150621
1.1794e-11
0.150621
4.11512e-11
0.150621
1.34574e-10
0.150621
4.17895e-10
0.150621
1.23032e-09
0.150621
3.41065e-09
0.150621
8.68676e-09
0.150621
2.17945e-08
0.150621
5.25385e-08
0.150621
1.12074e-07
0.150621
1.98957e-07
3.72312e-07
0.150621
-1.22125e-15
0.150621
-3.33067e-15
0.150621
-5.93969e-15
0.150621
-7.68829e-15
0.150621
-2.33147e-15
0.150621
-1.72085e-15
0.150621
-3.91354e-15
0.150621
1.13798e-15
0.150621
3.27516e-15
0.150621
1.52101e-14
0.150621
4.63518e-15
0.150621
-3.02536e-15
0.150621
-1.249e-15
0.150621
-6.10623e-16
0.150621
-7.77156e-15
0.150621
8.60423e-16
0.150621
3.46945e-15
0.150621
5.82867e-15
0.150621
3.9968e-15
0.150621
-9.65894e-15
0.150621
-9.10383e-15
0.150621
4.2466e-15
0.150621
-2.69229e-15
0.150621
1.04361e-14
0.150621
8.35443e-15
0.150621
-1.66533e-15
0.150621
8.71525e-15
0.150621
1.29896e-14
0.150621
2.09555e-14
0.150621
1.58762e-14
0.150621
-2.60902e-15
0.150621
-2.31482e-14
0.150621
-5.17364e-14
0.150621
-6.81399e-14
0.150621
-8.67639e-14
0.150621
1.75138e-14
0.150621
5.82728e-13
0.150621
3.25723e-12
0.150621
1.2643e-11
0.150621
4.31771e-11
0.150621
1.38926e-10
0.150621
4.27529e-10
0.150621
1.25603e-09
0.150621
3.48914e-09
0.150621
8.78209e-09
0.150621
2.24211e-08
0.150621
5.41117e-08
0.150621
1.12686e-07
0.150621
1.94697e-07
3.24968e-07
0.150621
1.13798e-15
0.150621
-2.55351e-15
0.150621
-8.40994e-15
0.150621
-7.77156e-15
0.150621
-7.49401e-15
0.150621
-3.77476e-15
0.150621
-1.9984e-15
0.150621
-3.77476e-15
0.150621
5.05151e-15
0.150621
1.39055e-14
0.150621
1.19904e-14
0.150621
1.02696e-15
0.150621
-2.16493e-15
0.150621
-1.36002e-15
0.150621
-2.94209e-15
0.150621
2.27596e-15
0.150621
2.91434e-15
0.150621
4.16334e-15
0.150621
2.72005e-15
0.150621
-1.00753e-14
0.150621
-1.59039e-14
0.150621
1.38778e-16
0.150621
-3.60822e-15
0.150621
9.04832e-15
0.150621
1.40721e-14
0.150621
-4.996e-15
0.150621
7.88258e-15
0.150621
1.39888e-14
0.150621
2.17326e-14
0.150621
2.12053e-14
0.150621
2.69229e-15
0.150621
-1.73472e-14
0.150621
-5.14866e-14
0.150621
-5.91194e-14
0.150621
-6.34492e-14
0.150621
6.30052e-14
0.150621
6.5592e-13
0.150621
3.25479e-12
0.150621
1.28523e-11
0.150621
4.4281e-11
0.150621
1.42674e-10
0.150621
4.37127e-10
0.150621
1.28388e-09
0.150621
3.57393e-09
0.150621
8.89842e-09
0.150621
2.32172e-08
0.150621
5.56746e-08
0.150621
1.12684e-07
0.150621
1.93945e-07
2.73242e-07
0.150621
-7.0105e-16
0.150621
-3.38504e-15
0.150621
-5.86701e-15
0.150621
-8.08731e-15
0.150621
-6.77584e-15
0.150621
-5.8703e-15
0.150621
-4.1911e-15
0.150621
-1.41904e-15
0.150621
-7.84004e-16
0.150621
1.0804e-14
0.150621
1.18274e-14
0.150621
8.11764e-16
0.150621
-5.84614e-15
0.150621
5.89833e-16
0.150621
-8.42386e-15
0.150621
-5.62743e-15
0.150621
2.56734e-16
0.150621
6.12358e-15
0.150621
9.59303e-15
0.150621
-7.24066e-15
0.150621
-1.94116e-14
0.150621
3.95271e-16
0.150621
8.27432e-16
0.150621
3.44171e-15
0.150621
2.07765e-14
0.150621
-1.06094e-14
0.150621
3.89769e-15
0.150621
1.40481e-14
0.150621
2.18228e-14
0.150621
2.36878e-14
0.150621
5.46319e-15
0.150621
-1.15593e-14
0.150621
-5.11665e-14
0.150621
-4.17673e-14
0.150621
-6.26018e-14
0.150621
-1.59728e-15
0.150621
3.77021e-13
0.150621
2.1698e-12
0.150621
9.37309e-12
0.150621
3.48657e-11
0.150621
1.1953e-10
0.150621
3.83078e-10
0.150621
1.18559e-09
0.150621
3.4675e-09
0.150621
8.42186e-09
0.150621
2.46788e-08
0.150621
5.61548e-08
0.150621
1.13607e-07
0.150621
1.91675e-07
2.23221e-07
0.0191733
-0.00923652
-0.000957481
-0.0401113
0.0517344
-0.0687008
0.0179674
-0.177019
0.108554
-0.103208
0.0240487
-0.123958
0.0148393
-0.20371
0.0447716
-0.189184
-0.00403233
-0.49263
0.145805
-0.60541
0.245504
-0.653678
0.0348206
-0.514377
-0.146215
0.00107144
-0.474128
0.154484
-0.0940863
0.165536
-0.0417682
-0.00376365
0.00662049
-0.00364598
-0.025165
0.0675855
-0.0394164
0.0215887
-0.129604
0.158517
-0.0856999
0.108849
-0.0850182
0.0144615
-0.206137
0.111188
-0.298628
0.0666052
-0.558665
0.275598
-0.694055
0.454321
-0.879684
0.256538
-0.400891
-0.60496
0.0993571
-0.952831
0.0900013
-0.0164369
0.255557
-0.0251552
-0.00513325
0.0169157
0.00482592
-0.0196383
0.0773996
-0.0390339
0.0337656
-0.168611
0.183271
-0.0794082
0.197578
-0.0509617
-0.00625213
-0.273639
0.201251
-0.448709
0.184262
-0.735049
0.526162
-0.787358
0.5732
-0.385878
-0.115153
-0.21601
-0.738006
-0.152531
-1.0125
0.0779256
-0.209882
0.327283
-0.0198502
-0.00893738
-0.0376747
0.0261742
-0.0127318
0.0843743
-0.0471784
0.0397396
-0.233464
0.306135
-0.0661336
0.221913
-0.0815284
0.0359361
-0.314959
0.240578
-0.58325
0.379184
-0.755725
0.746752
-0.44257
0.294535
-0.324293
-0.257002
-0.216995
-0.819349
0.0280566
-1.27751
0.107679
-0.215553
0.422861
-0.0191668
-0.00673653
0.227964
-0.26448
-0.0117343
0.0911705
-0.0705802
0.0433998
-0.190286
0.500675
-0.105597
0.284892
-0.0991961
0.0593532
-0.299964
0.250432
-0.559633
0.637278
-0.339921
0.537555
-0.39666
0.35726
-0.380997
-0.324932
-0.215149
-0.975452
0.063316
-1.56676
0.203654
-0.310166
-0.0169248
0.599324
-0.136129
0.0989229
-0.0353281
-0.114914
0.31525
-0.357678
0.38961
-0.0489048
0.414585
-0.0230655
0.396138
-0.0112066
0.222936
0.154013
0.145366
0.039049
0.100704
0.0147185
0.120546
-0.06445
0.141039
0.00712936
0.0305004
0.144997
0.00350642
0.00975052
-0.0458364
0.0509299
-0.0456997
-0.121414
0.200607
-0.0625347
-0.165909
0.392464
-0.776597
0.602769
-0.233765
0.497435
0.101363
0.367829
0.0804767
0.260175
0.264304
0.166495
0.135988
0.140344
-0.00402162
0.0484551
0.0218611
0.0612925
-0.000658795
0.0081121
0.23927
0.00420821
0.0117662
0.0146087
0.0414603
-0.0353704
-0.119575
0.298129
-0.0128268
-0.235122
0.244837
-1.03431
0.446308
-0.424872
0.550091
0.031293
0.351087
0.264807
0.285076
0.32183
0.208245
0.220165
0.150437
0.00621019
0.0752504
0.106541
0.119607
-0.0392089
0.0166558
0.377786
-0.00402271
0.0447925
0.00710936
0.0272438
-0.0207632
-0.135282
0.403679
0.00780924
-0.340975
0.190772
-1.21072
0.335483
-0.560528
0.411261
-0.0138393
0.385058
0.324679
0.282657
0.378467
0.230706
0.286868
0.176467
0.0324367
0.108982
0.15933
0.0465593
0.0545058
0.0476877
0.409237
-0.0035033
0.080104
0.0114868
0.0124001
-0.00926149
-0.13571
0.493622
0.0350936
-0.477157
0.190283
-1.34492
0.392415
-0.755203
0.389639
0.0165221
0.43575
0.309965
0.280213
0.458996
0.235849
0.34567
0.179872
0.0964566
0.128916
0.189079
0.0935652
0.1078
0.190621
0.331418
-0.00140161
0.26008
0.0191724
-0.0150352
0.250306
-0.150621
3.36239e-07
-0.150621
2.44931e-07
-0.150621
1.81252e-07
-0.150621
7.98572e-08
-0.150621
3.29025e-08
-0.150621
1.29626e-08
-0.150621
4.85821e-09
-0.150621
1.73192e-09
-0.150621
5.91216e-10
-0.150621
1.91835e-10
-0.150621
5.85772e-11
-0.150621
1.65558e-11
-0.150621
4.23611e-12
-0.150621
9.11604e-13
-0.150621
7.81042e-14
-0.150621
-7.53286e-14
-0.150621
-5.27356e-14
-0.150621
-2.6007e-14
-0.150621
-1.44884e-14
-0.150621
-1.55431e-14
-0.150621
-7.74381e-15
-0.150621
1.91513e-15
-0.150621
2.85882e-15
-0.150621
1.69309e-15
-0.150621
1.72085e-15
-0.150621
2.7478e-15
-0.150621
5.27356e-16
-0.150621
2.02616e-15
-0.150621
-3.63598e-15
-0.150621
-1.44329e-15
-0.150621
-3.30291e-15
-0.150621
-3.33067e-15
-0.150621
-2.22045e-15
-0.150621
-4.57967e-15
-0.150621
-7.32747e-15
-0.150621
-3.63598e-15
-0.150621
4.38538e-15
-0.150621
5.60663e-15
-0.150621
-2.16493e-15
-0.150621
5.91194e-15
-0.150621
5.80092e-15
-0.150621
-8.90954e-15
-0.150621
-9.54792e-15
-0.150621
-7.13318e-15
-0.150621
-2.498e-16
-0.150621
1.58207e-15
-0.150621
-2.02616e-15
-0.150621
-5.55112e-17
-0.150621
-2.27596e-15
-7.49401e-16
-0.150621
2.66991e-07
-0.150621
2.36688e-07
-0.150621
1.84027e-07
-0.150621
8.17948e-08
-0.150621
3.30984e-08
-0.150621
1.29464e-08
-0.150621
4.80646e-09
-0.150621
1.70223e-09
-0.150621
5.81761e-10
-0.150621
1.90145e-10
-0.150621
5.9048e-11
-0.150621
1.729e-11
-0.150621
4.67826e-12
-0.150621
1.11186e-12
-0.150621
1.15352e-13
-0.150621
-3.50553e-14
-0.150621
-4.48808e-14
-0.150621
-2.07057e-14
-0.150621
-1.6348e-14
-0.150621
-1.64868e-14
-0.150621
-7.66054e-15
-0.150621
6.30052e-15
-0.150621
5.77316e-15
-0.150621
2.44249e-15
-0.150621
-1.97065e-15
-0.150621
3.05311e-16
-0.150621
8.32667e-16
-0.150621
3.55271e-15
-0.150621
-3.16414e-15
-0.150621
-6.10623e-15
-0.150621
-5.10703e-15
-0.150621
2.66454e-15
-0.150621
3.60822e-15
-0.150621
-3.44169e-15
-0.150621
-6.57807e-15
-0.150621
2.77556e-17
-0.150621
5.93969e-15
-0.150621
8.43769e-15
-0.150621
4.44089e-16
-0.150621
4.60743e-15
-0.150621
5.80092e-15
-0.150621
-1.74027e-14
-0.150621
-1.6348e-14
-0.150621
-5.02376e-15
-0.150621
-1.41553e-15
-0.150621
-2.33147e-15
-0.150621
-5.30131e-15
-0.150621
-1.30451e-15
-0.150621
-5.07927e-15
-6.38378e-16
-0.150621
1.93554e-07
-0.150621
2.33705e-07
-0.150621
1.85813e-07
-0.150621
8.39078e-08
-0.150621
3.34112e-08
-0.150621
1.29717e-08
-0.150621
4.76744e-09
-0.150621
1.6759e-09
-0.150621
5.7346e-10
-0.150621
1.88536e-10
-0.150621
5.92894e-11
-0.150621
1.77128e-11
-0.150621
4.91757e-12
-0.150621
1.15347e-12
-0.150621
1.49908e-13
-0.150621
-8.57647e-15
-0.150621
-3.39728e-14
-0.150621
-1.75693e-14
-0.150621
-1.32117e-14
-0.150621
-1.32117e-14
-0.150621
-3.96905e-15
-0.150621
8.57647e-15
-0.150621
5.13478e-15
-0.150621
5.57887e-15
-0.150621
4.19109e-15
-0.150621
-3.08087e-15
-0.150621
2.19269e-15
-0.150621
1.02696e-15
-0.150621
-8.57647e-15
-0.150621
-1.14631e-14
-0.150621
-8.04912e-15
-0.150621
3.16414e-15
-0.150621
1.52656e-15
-0.150621
-7.21645e-15
-0.150621
-9.85323e-15
-0.150621
1.27676e-15
-0.150621
8.79852e-15
-0.150621
6.68909e-15
-0.150621
-5.63438e-15
-0.150621
4.88498e-15
-0.150621
5.27356e-16
-0.150621
-1.91236e-14
-0.150621
-1.68199e-14
-0.150621
-2.498e-15
-0.150621
-2.498e-15
-0.150621
-6.38378e-16
-0.150621
-5.02376e-15
-0.150621
-3.66374e-15
-0.150621
-1.63758e-15
4.71845e-16
-0.150621
1.20759e-07
-0.150621
2.33122e-07
-0.150621
1.86435e-07
-0.150621
8.61469e-08
-0.150621
3.38193e-08
-0.150621
1.30208e-08
-0.150621
4.73411e-09
-0.150621
1.65086e-09
-0.150621
5.65603e-10
-0.150621
1.86524e-10
-0.150621
5.90737e-11
-0.150621
1.77714e-11
-0.150621
4.93683e-12
-0.150621
1.14661e-12
-0.150621
1.69947e-13
-0.150621
1.21292e-14
-0.150621
-2.34535e-14
-0.150621
-1.09912e-14
-0.150621
-1.2601e-14
-0.150621
-1.33504e-14
-0.150621
4.05231e-15
-0.150621
1.113e-14
-0.150621
5.19029e-15
-0.150621
4.46865e-15
-0.150621
-3.33067e-16
-0.150621
-7.16094e-15
-0.150621
-4.44089e-16
-0.150621
-5.27356e-15
-0.150621
-7.91034e-15
-0.150621
-1.36557e-14
-0.150621
-4.91274e-15
-0.150621
6.43929e-15
-0.150621
3.19189e-15
-0.150621
-7.29972e-15
-0.150621
-4.63518e-15
-0.150621
1.00753e-14
-0.150621
1.23512e-14
-0.150621
3.33067e-15
-0.150621
-4.7462e-15
-0.150621
2.83107e-15
-0.150621
-7.85483e-15
-0.150621
-2.57294e-14
-0.150621
-1.68476e-14
-0.150621
-6.60583e-15
-0.150621
1.02696e-15
-0.150621
-2.13718e-15
-0.150621
-3.38618e-15
-0.150621
-2.9976e-15
-0.150621
-3.63598e-15
-2.77556e-16
-0.150621
5.19495e-08
-0.150621
2.3697e-07
-0.150621
1.88099e-07
-0.150621
8.88358e-08
-0.150621
3.37029e-08
-0.150621
1.24716e-08
-0.150621
4.29426e-09
-0.150621
1.41587e-09
-0.150621
4.69032e-10
-0.150621
1.4766e-10
-0.150621
4.43962e-11
-0.150621
1.26235e-11
-0.150621
3.2417e-12
-0.150621
6.39019e-13
-0.150621
5.46633e-14
-0.150621
-1.53572e-14
-0.150621
-1.7092e-14
-0.150621
-5.40567e-15
-0.150621
-1.08159e-14
-0.150621
-9.98975e-15
-0.150621
4.54865e-15
-0.150621
1.66119e-14
-0.150621
6.06302e-15
-0.150621
7.56289e-16
-0.150621
-1.78687e-15
-0.150621
-5.12608e-15
-0.150621
5.49782e-16
-0.150621
-4.33511e-15
-0.150621
-1.38917e-14
-0.150621
-2.07992e-14
-0.150621
-5.5615e-15
-0.150621
4.22748e-15
-0.150621
2.8709e-15
-0.150621
-1.33782e-14
-0.150621
1.30452e-15
-0.150621
1.12827e-14
-0.150621
1.42665e-14
-0.150621
3.08433e-15
-0.150621
-6.30769e-15
-0.150621
1.14319e-14
-0.150621
-1.05785e-14
-0.150621
-3.42606e-14
-0.150621
-7.73344e-15
-0.150621
-2.04342e-15
-0.150621
1.24228e-15
-0.150621
-2.58118e-15
-0.150621
-3.90345e-15
-0.150621
-3.70746e-15
-0.150621
-3.03195e-15
1.02715e-15
7.45574
-3.12077e-15
2.5894
4.86634
4.06428
3.39146
4.04997
3.40577
3.91886
3.53688
7.45574
-6.35726
6.35726
6.39537
-6.39537
-6.50148
6.50148
-6.58921
6.58921
6.53891
-6.53891
6.51654
-6.51654
6.50645
-6.50645
6.5301
-6.5301
6.67243
-6.67243
6.74255
-6.74255
6.73524
-6.73524
6.7262
-6.7262
6.71679
-6.71679
6.71046
-6.71046
6.70926
-6.70926
6.71197
-6.71197
6.71943
-6.71943
6.72515
-6.72515
6.71754
-6.71754
6.70519
-6.70519
6.69427
-6.69427
6.63561
-6.63561
6.4654
-6.4654
6.61362
-6.61362
-7.45574
-2.522
-4.93374
-4.08575
-3.36999
-3.9645
-3.49124
-4.1353
-3.32044
-7.45574
-7.15565e-08
6.66983
-6.66983
-3.4728e-08
6.79068
-6.79068
-5.36603e-09
-6.64684
6.64684
-2.75305e-11
-6.69619
6.69619
1.05999e-13
-6.70645
6.70645
4.68279e-14
-6.70564
6.70564
-2.21907e-14
-6.69664
6.69664
1.91444e-14
-6.69532
6.69532
1.53993e-14
-6.70649
6.70649
-2.24283e-14
-6.71027
6.71027
4.38937e-14
-6.70933
6.70933
-7.76462e-15
-6.70327
6.70327
-2.53928e-14
-6.70437
6.70437
-4.00392e-13
-6.70455
6.70455
-5.79171e-07
-6.65307
6.65261
0.00182224
-5.68975
6.36003
0.00742523
-7.51335
5.97876
-0.0607661
-3.48589
3.34062
-0.0326857
-2.42069
8.51204
-0.122739
-1.79994
1.86754
-0.553584
-0.958038
0.205951
0.455932
-0.052995
0.0984473
0.13868
-6.98931e-05
0.00821485
-0.00214742
-0.12648
-0.0332589
-0.209002
2.06762
1.26589
-3.3335
0.492737
-0.708026
-0.967698
1.47692
1.13919
-0.675755
0.82163
-0.685768
0.894428
-0.941422
1.52335
-0.859206
1.62965
-1.21515
2.08095
-1.76352
1.52313
-2.06575
1.21087
-2.15396
1.14019
-2.62257
-0.738255
0.237004
0.207797
0.0142973
-0.102963
-0.379483
-0.0351791
-1.44653
1.44652
-0.000328699
-1.81253
1.81255
-3.20166e-06
2.28517
-2.28517
2.47203e-09
2.80432
-2.80432
8.12413e-11
-3.55054
3.55054
3.72197e-13
-4.50692
4.50692
-2.02659e-15
-5.72963
5.72963
1.46046e-15
-6.53303
6.53303
-4.48247e-15
1.09848
-9.97773
-0.785902
0.0482043
-4.11511
6.70451
3.34062
7.4049
4.06631
3.38942
7.45777
7.43939
3.40908
4.04666
3.07862
4.37712
6.64291
-6.64291
6.38768
-6.38768
6.57634
-6.57634
-6.56587
6.56587
-6.52339
6.52339
-6.5139
6.5139
-6.50329
6.50329
-6.59554
6.59554
-6.72297
6.72297
-6.74563
6.74563
-6.73434
6.73434
-6.72221
6.72221
-6.71845
6.71845
-6.71287
6.71287
-6.71174
6.71174
-6.72131
6.72131
-6.72169
6.72169
-6.71732
6.71732
-6.71265
6.71265
-6.70677
6.70677
-6.67597
6.67597
-6.55698
6.55698
-6.4767
6.4767
-0.0128781
-6.19075
6.19075
-4.46275
-2.99299
-3.51308
-3.94265
-3.45344
-4.0023
-0.113794
-2.50716
-4.94858
-7.02461
0.35478
-7.02461
-1.73272e-08
-0.567537
-0.233937
6.66492
-6.66492
-1.26391e-10
6.67748
-6.67748
2.67628e-13
6.70697
-6.70697
1.15302e-13
6.70945
-6.70945
1.82564e-14
6.69814
-6.69814
-2.27179e-14
6.69541
-6.69541
3.46597e-14
6.69771
-6.69771
1.53572e-14
6.7074
-6.7074
-8.20711e-15
6.70485
-6.70485
-1.11025e-16
6.70353
-6.70353
1.5158e-14
6.69721
-6.69721
-4.32795e-14
6.70108
-6.70108
-4.54809e-10
6.69077
-6.6908
0.000167664
6.55211
-6.55307
0.00370921
4.53171
-4.46166
-0.0690908
6.33568
-4.03359
0.00486314
3.60837
-11.3059
-0.370966
1.72038
-1.7578
-0.286687
0.679913
-0.363857
0.452844
0.123957
-0.78175
0.417429
-0.391209
-0.66677
1.00589
0.172751
0.0645077
0.109939
0.156031
0.92318
0.322136
0.104613
0.402727
0.734422
0.805228
-0.326025
-0.934585
-0.972223
-1.99853
1.28819
-1.27247
-0.00442171
1.62599
-1.62568
-1.08152e-05
-2.03818
2.03818
-1.29815e-07
0.246988
-2.59944
2.59944
5.56219e-10
0.204882
3.07029
-3.07029
5.13095e-12
3.99718
-3.99718
1.10711e-14
5.08862
-5.08862
1.2137e-14
6.40825
-6.40825
-3.15949e-15
0.922704
7.32793
7.45242
6.6155
0.00768167
-0.0748586
0.0233462
0.015514
0.00263587
0.00316304
-0.0654448
-0.0505333
-0.00308773
0.000903726
0.00399146
-0.00165683
-0.00240994
-0.00248525
-0.0093385
-0.00225931
0.00783229
0.00489518
-0.00158152
0.0183004
0.0786241
-0.0112966
0.422868
-7.59883
-7.41793
-6.64246
-0.125761
0.0306363
0.0107845
0.00299736
-0.00749339
-0.00122756
0.00238734
0.000911257
-0.00541482
-0.00579891
-0.00606249
-0.00329107
-0.0137836
-0.100277
-0.375747
-0.428553
-1.2396
-0.222192
-0.768054
-1.31445
-0.582152
-0.596972
2.66459
0.804792
0.179466
0.225647
0.314271
0.265966
0.446636
0.581706
0.678623
0.00685325
0.00745574
-0.0268105
-0.076892
-0.0195807
0.0103928
0.00813353
0.00542235
0.00798291
0.0036149
-0.000225931
0.00188276
-0.00346428
-0.000225931
0.00745574
0.0125015
0.0403664
0.0915775
-0.136914
-7.83274
-7.4339
-7.32274
-0.00381071
-0.00150621
-9.03726e-05
0.0087812
0.00286933
0.00447344
-0.000256056
0.00716203
0.00347181
-0.0380386
-0.176933
-0.674893
-0.456755
-0.534825
-0.730775
-0.0368133
-0.26791
-0.510121
0.247546
0.0269611
-0.285653
-7.92673
-0.000519642
0.0187071
-0.0180745
0.124782
0.641005
0.509739
0.186707
0.170656
0.480255
3.70844
3.69646
4.53098
2.08452
5.4756
3.86599
3.58644
6.22449
-6.2168
-4.16595
-3.76078
-3.78699
-6.53401
6.56097
6.56647
-6.64133
6.552
-6.67776
6.60141
-6.57807
0.0674029
-4.24374
-3.35508
-6.51609
6.51872
6.49267
-6.4895
6.50163
-6.56707
-6.75987
6.70933
6.74473
-6.74782
6.73215
-6.73125
-6.72123
6.72523
6.7195
-6.72116
6.71114
-6.71355
6.71528
-6.71777
6.71604
-6.72538
6.72869
-6.73095
-6.72937
6.7372
-6.71604
6.72093
6.70783
-6.70941
6.71543
-6.69713
-6.60684
6.68546
-6.35379
6.3425
-4.34112
-3.49162
-8.50707
-7.73536
-6.63335
6.62047
-0.0668757
0.0423998
6.71787
-6.71839
-5.73448
-3.73035
-3.68758
-2.14484
-4.49762
6.71163
-6.71544
-6.52038
6.40659
-0.295895
-0.234743
-1.93115
1.27499
-7.6355
7.76028
-6.70861
6.7194
0.00926319
-6.71449
6.71749
-0.0028618
-6.70471
6.72342
0.0146855
-6.70689
6.70539
6.70488
-6.70497
-6.70345
6.71223
-6.71774
6.72061
-6.70723
6.71171
-6.71156
6.7113
-6.6969
6.70406
-6.70259
6.70607
-6.71224
6.67427
-6.60908
6.43277
4.40516
-4.75477
-3.39743
2.6364
3.18284
-3.82357
2.44598
-3.34347
-5.0834
1.07598
2.43214
-2.42826
-0.783548
0.400514
0.276956
6.40342
-6.15588
0.186619
1.55019
-1.19198
-0.564972
0.355101
-1.18365
1.92944
-0.867676
0.815405
0.614754
2.49324
-2.24626
1.74059
-1.56109
3.75158
-3.27132
-2.0109
2.23654
0.482349
-1.34685
1.51589
0.393235
-3.09661
3.36257
0.654968
-2.84701
3.0519
0.51556
5.30295
-4.72124
-1.7866
1.97322
0.449952
6.65397
-5.97535
-4.20914
4.71888
1.09381
6.51985
-6.513
0.00376552
-5.26834
5.90934
1.38564
5.78904
1.5352
-1.16331
-2.00116
2.17576
2.60269
-2.23332
3.46187
-2.73529
3.07553
-2.12542
1.40822
-1.76169
-1.22609
0.299047
0.183249
-2.20969
-1.04805
-0.995548
-6.90077
6.66683
-0.348763
3.60037
3.72757
7.46636
8.25855
-6.6698
6.70043
0.0536211
7.56012
-7.54777
-7.87932
0.758092
-0.229962
0.296232
0.089711
-1.84646
6.7308
0.00135559
6.73893
3.68735
3.75204
7.27379
0.316928
-7.52454
6.73976
0.00497049
6.75015
6.51044
0.0505333
6.52595
-0.857711
-0.000903726
1.1881
7.27446
-6.50795
6.51541
-6.49349
6.46668
-6.68117
6.60428
6.7488
-6.76838
0.0189029
0.017698
-6.72681
6.73223
-6.71905
6.72703
-6.71408
6.71769
-6.71122
6.71099
-6.72809
6.72997
6.72289
-6.72635
6.71913
-6.71935
-6.71476
6.72221
-6.71024
6.72274
6.70956
-6.66919
6.57543
-6.48386
6.37345
-6.51036
-7.1249
-0.273489
-0.17954
3.67138
-7.40174
-3.65135
-3.9669
-3.46699
-8.14897
-7.32199
0.0107694
-7.15457
-0.000828415
1.78493
6.59025
-6.60833
-6.69575
-0.0111459
-6.69698
6.71047
-6.71797
0.0079076
-0.00497049
6.70482
-6.70244
6.71595
-6.71504
6.71571
-6.72112
6.71529
-6.72109
6.70508
-6.71114
6.71031
-6.7136
6.70177
-6.71555
6.60391
-6.70404
6.29593
-0.710497
6.00703
4.91579
-5.76177
-4.31846
5.87407
-2.4296
2.02017
-1.95915
1.34177
-2.74111
0.48254
-0.652239
0.00308773
-0.0064767
0.471978
4.85805
1.11859
0.412349
-0.0875108
0.0129534
3.8934
3.56437
7.60184
7.31641
2.52515
0.526752
-0.00158152
2.83942
-3.74248
4.18911
8.55452
0.9764
0.938785
0.447836
1.32348
0.246197
-0.710131
1.36622
-1.02041
0.51388
-0.751448
-3.2301
-1.18805
-1.02601
0.221639
-0.894833
0.917794
0.59316
-1.06422
-1.22819
-1.10218
-1.43997
-1.33946
-0.598807
-0.108297
-0.000828415
0.0134053
-0.0064767
0.00805822
0.102723
-0.00203338
0.0125015
-0.000150621
-0.167867
0.201606
0.0462406
-0.00240994
0.00617546
0.0178486
0.00233462
-0.0120497
0.00406677
-0.00293711
0.000451863
-0.000979036
0.0256056
-0.0143843
0.0128028
-7.53105e-05
0.000979036
-0.155591
-0.100389
0.0259068
-0.0590434
0.0134806
0.0110706
-0.271058
-0.0412702
-0.00753105
-0.00707918
-0.00979036
-0.00941381
0.0921047
-0.0125768
0.00557297
0.00979036
-1.01718
-0.305231
6.72974
-6.74232
6.78608
-6.73245
-6.7494
6.7671
-6.7381
6.75158
-6.50728
6.51805
-6.84519
6.78615
-5.56318
7.34812
2.99133
-4.22492
-3.17682
-6.47331
6.37292
6.69759
-6.85318
-0.147609
-6.75414
6.77305
-6.49312
6.54365
3.0122
-2.41904
6.5813
-6.85223
-6.75362
6.75264
-6.74955
6.76062
6.75746
-6.75701
0.0193548
-6.73261
6.74541
-6.73554
6.73961
-6.7384
6.76401
6.75068
-6.76273
-0.00293711
-1.40637
2.05186
6.75475
-6.76122
6.74684
-6.74691
0.0112966
6.75189
-6.74571
0.0192795
6.73908
-6.75347
-0.0236475
6.74232
-6.74473
0.00391614
6.74383
-6.74586
0.658635
-1.55415
-6.58733
6.78894
1.64406
-3.84579
-6.0814
5.91353
-3.21244
-4.10954
0.517522
-0.574592
6.43784
-6.43867
-0.0354712
-2.00145
-6.14752
-6.22637
-7.00523
6.76514
-6.76378
0.0157399
6.77192
-6.76695
0.0177733
-6.74398
6.73901
-0.0142337
-3.89061
-3.26396
-7.10306
-6.44078
6.60428
-6.53687
0.111158
-6.74827
6.75384
-0.00444332
-6.74887
6.74601
-0.00986567
-6.72199
6.72989
2.94183
-3.88477
-6.74066
6.75045
-6.73374
6.74624
0.0201079
-6.67605
6.76815
0.110029
6.80167
-6.69894
0.214334
-6.73547
6.74353
6.7378
-6.74428
-6.72394
6.73735
-6.73615
6.73532
-6.67626
6.3625
-6.78246
6.67416
-0.201155
0.772996
-0.928076
-6.37793
5.40113
-1.89468
6.58176
-6.36012
0.500363
3.67681
-8.4009
3.87134
-4.16827
-3.27012
1.55715
6.74993
-6.74684
0.00421739
-5.70198
5.8886
-6.75158
6.75068
-0.00557297
-4.92463
6.11273
0.245129
6.75196
-6.75354
0.00240994
-5.41776
6.53635
2.84079
0.834365
1.80198
-1.4093
3.8207
-3.16574
2.09925
-1.74835
-3.06316
3.57872
0.757548
-2.77802
3.30477
0.800701
-6.48762
6.40011
0.280532
6.53898
-6.53522
0.0317057
6.70866
-5.32302
1.78403
2.0251
1.45888
-1.1518
0.463403
0.650883
4.93073
-3.95433
-1.62813
2.94226
1.93341
-1.34
0.432507
-1.45866
4.31324
-3.39545
1.14751
1.53528
-5.95281
4.92249
-1.80433
6.46623
-6.815
-0.538997
-0.414885
-6.66385
5.9124
-0.750318
-2.59467
0.961923
-1.59842
2.02187
-1.62703
0.249933
-0.582027
5.55791
-4.4641
1.60359
1.64862
2.06217
-1.61221
2.3889
-1.90655
6.49726
-6.6768
-0.355917
1.87488
-2.5513
-1.88182
-1.376
-6.74835
6.75761
0.00233462
-1.36161
1.39747
-0.669946
3.58621
3.68758
-0.961219
0.428818
-0.0138571
4.47736
3.12448
-1.11828
6.75678
-0.00203338
6.77463
3.21531
4.25105
6.80151
7.09184
0.00926319
-6.49877
6.52467
0.0192795
0.0036149
-0.303878
0.000677794
-6.80453
6.80551
6.74624
-6.74917
-1.04255
1.54955
0.512626
-0.0183758
0.666797
-6.7668
6.76913
-0.000677794
-6.725
6.77124
-1.99857
-0.484316
6.69103
-6.75791
0.0135559
0.0860046
0.00557297
6.47587
0.0677794
6.48883
-6.73313
0.0111459
-6.73328
6.73532
-6.74646
6.77719
-6.7625
0.00240994
0.0171708
-0.00700387
-6.74322
0.00775698
-6.75301
6.74804
-6.75746
-0.0152127
0.002184
6.73547
-6.74255
6.73705
-6.74458
-6.75874
6.71747
-0.0845737
-0.589899
0.0447344
-1.69903
4.04636
-1.59934
3.0283
0.0277896
-3.51059
1.39855
6.50389
-0.615287
6.20799
-0.986154
-1.60189
2.83081
0.922313
-6.61279
6.65519
0.0782476
0.118313
1.31003
-0.930821
0.569961
0.721945
0.704097
1.962
0.552587
0.79849
-0.0141584
0.238816
-1.28186
-1.20944
-0.800869
0.77669
6.55969
-6.79444
-0.198217
-4.71444
-3.02093
-7.30911
-7.13047
-1.06091
-0.018677
0.013104
-0.00881133
-1.7879
0.0390108
0.038559
0.0079076
0.0722981
-0.00489518
-0.0463913
-0.0165683
-0.0139324
-0.00926319
-0.00519642
-1.81518
0.858726
6.81748
-6.82238
-6.78721
6.82622
-6.81432
6.82223
-6.78404
6.79534
-6.81424
6.81131
6.7909
-6.80483
-6.82102
6.85958
6.80347
-6.7979
7.46869
2.31726
-1.54057
-6.79331
6.80905
-6.49598
6.51526
-7.49738
1.27101
-8.03638
-6.79745
6.8168
6.7796
-6.79617
6.81319
-6.80392
0.019882
-6.51149
6.20762
-6.77169
6.78886
0.031781
6.31455
-7.41544
-1.79877
2.3114
0.51849
6.86756
-6.88594
0.0465419
6.80061
-6.80129
0.0165683
-6.78472
6.804
6.7851
-6.80874
-0.0291452
6.80061
-6.79669
0.0134053
-2.81532
0.663845
-6.55804
6.98685
-8.3103
3.86688
6.7805
-6.78977
-6.42323
6.37684
2.92702
-6.60732
-6.78239
6.77538
-0.00278649
6.87472
-7.02232
-0.0112213
6.79391
-6.79323
-0.00278649
6.81643
-6.79865
0.0125015
-6.80272
6.78849
-0.0273377
6.60802
-6.95935
6.80242
-6.80686
-0.653513
1.07911
-6.8037
6.79383
-0.0152127
3.4927
-3.40961
-2.18571
-1.63396
6.79941
-6.797
-0.00188276
6.80069
-6.79707
0.00323835
6.7857
-6.79956
-0.023045
0.604016
-1.07955
-6.79835
6.80054
-0.00745574
6.47181
-6.40403
0.0485753
6.91516
-6.80513
6.97044
-6.7561
0.4124
6.78992
-6.80513
6.786
-6.7912
-6.78118
6.79428
-0.000677794
6.74978
-6.83435
-6.80182
6.82961
-6.79978
6.78111
-0.0500062
1.39938
-0.811664
-6.79052
6.79828
-0.000602484
-6.80212
6.84685
0.0153633
4.04711
3.2693
7.17159
6.95688
6.8159
-6.81349
0.0188276
3.79136
-2.99065
-6.70941
6.98994
0.205748
6.49252
-6.46081
-0.00346428
-6.77854
6.78969
0.0103175
6.81409
-6.81612
0.0122756
2.03639
-1.37993
6.69405
-7.04996
-0.328278
6.8031
-6.81725
-0.0112213
-6.80792
6.80234
-0.0140831
6.79918
-6.79496
0.0144596
-6.80603
6.80837
-0.00369021
0.672334
-1.55006
-5.81233
4.27661
6.70406
-6.90503
-0.130287
-0.285592
-1.501
2.05369
0.810446
-6.78894
6.80905
0.0134806
6.22283
-6.2583
-0.288665
6.58884
-6.47768
0.184812
0.38144
-0.0140077
-4.81189
6.59592
1.6743
-3.21487
0.0609262
-2.42227
1.03303
2.75832
-0.654352
0.0107694
-0.0064767
-5.16976
0.0198067
-3.85885
1.80081
-0.00594953
-2.60202
-0.0400509
-1.16605
-6.69985
6.77809
-0.842347
0.00610015
0.0111459
-5.33047
-1.89515
-6.9701
6.86206
-6.78977
-0.00655201
3.57815
3.22336
-0.850025
1.53483
2.10922
-3.64405
0.041722
0.545817
-0.0839712
-4.13289
5.73647
0.743176
1.31007
1.10565
-6.80588
6.81944
0.0346428
-0.00421739
0.545495
-1.65487
0.656559
0.217897
-0.592128
-6.50155
6.58756
-0.00632608
0.105962
-6.78216
-0.0229697
-6.79097
0.0364503
-0.00497049
-1.26654
1.74632
-0.888996
0.00308773
1.33526
1.12606
6.60751
-6.10715
3.0367
-4.02373
-0.0086607
-0.586443
5.77654
-6.39183
-3.82284
-3.28022
1.3012
6.62205
-6.50374
0.14437
2.88206
4.07482
6.46021
-3.94853
0.957874
-3.19098
-5.46212
4.7118
1.1454
-2.59731
0.0137065
6.96057
-4.93547
2.14868
2.53322
6.24557
-4.59695
2.11268
1.99897
0.879702
-1.99761
0.725725
5.64173
-6.05662
-2.39465
0.933323
6.86161
-7.05983
0.161767
-1.60772
1.58014
-3.00871
-2.16522
-2.23287
-3.42821
4.96349
2.30827
-2.8258
-3.66182
-3.46865
-6.25913
-7.29148
0.00316304
-2.04742
0.00594953
-1.69684
0.329257
-2.64546
-3.82344
0.632457
-2.67593
4.45296
2.71863
6.98618
6.79346
-0.898453
2.57276
-6.83322
6.89415
4.33766
-3.30462
6.76624
-7.41386
-6.8778
6.87185
0.274356
-7.37569
7.0474
-6.85724
6.87607
-0.491681
-2.31244
0.61744
-1.56885
6.57745
-7.41981
-0.798337
6.84459
-6.86756
6.92329
-6.87675
0.0900713
-6.85122
6.86779
-6.85521
6.85461
-0.0106188
-2.29122
0.328729
-6.85868
6.85212
-0.00406677
6.83465
-6.84113
-0.917082
0.514093
4.50183
-2.96701
3.60338
1.37065
-6.84745
6.86086
6.91561
-6.87389
0.885726
-6.51594
6.84519
1.9632
6.82825
-6.87826
-4.15737
2.34608
-6.85077
6.88541
-1.06209
1.43276
3.28784
-5.83605
-6.84738
6.86726
-7.00651
6.99529
0.0408935
0.118539
6.84888
-6.85167
0.0014309
6.86041
-6.84791
0.0130287
6.86184
-6.87585
6.83638
-6.86372
6.85446
-6.84369
0.00278649
-6.85295
6.87276
2.36267
-4.55002
0.263067
-0.975862
-0.536184
-0.560814
6.87118
-6.86003
-6.86252
6.85506
-0.0103928
6.85898
-6.85574
0.00602484
6.83608
-6.85913
6.84218
-6.84286
-6.87125
6.86493
-0.0161918
-6.31177
6.36035
-1.22291
1.64558
-1.99543
0.727816
-1.37713
-6.35477
7.23447
-2.0029
1.11677
-6.84271
6.8458
-0.000527173