/*--------------------------------*- C++ -*----------------------------------*\
  =========                 |
  \\      /  F ield         | OpenFOAM: The Open Source CFD Toolbox
   \\    /   O peration     | Website:  https://openfoam.org
    \\  /    A nd           | Version:  6
     \\/     M anipulation  |
\*---------------------------------------------------------------------------*/
FoamFile
{
    version     2.0;
    format      ascii;
    class       volVectorField;
    location    "0.0003";
    object      U;
}
// * * * * * * * * * * * * * * * * * * * * * * * * * * * * * * * * * * * * * //

dimensions      [0 1 -1 0 0 0 0];

internalField   nonuniform List<vector> 
3704
(
(650 -5.25391e-13 0)
(650 -7.99375e-14 0)
(650 3.0605e-14 0)
(650 -2.51469e-13 0)
(650 -1.04238e-14 0)
(650 -1.39776e-13 0)
(650 -1.69769e-13 0)
(650 7.56992e-14 0)
(650 2.13701e-13 0)
(650 2.74456e-13 0)
(650 2.76734e-13 0)
(650 -1.54077e-13 0)
(650 -1.05831e-13 0)
(650 -1.26163e-13 0)
(650 -2.19018e-13 0)
(650 7.08757e-14 0)
(650 1.37628e-13 0)
(650 2.97507e-13 0)
(650 -1.3384e-14 0)
(650 -6.51973e-13 0)
(650 -2.32568e-13 0)
(650 2.79537e-13 0)
(650 8.46587e-14 0)
(650 1.46031e-13 0)
(650 -1.36836e-14 0)
(650 5.24085e-13 0)
(650 6.8588e-13 0)
(650 1.24794e-12 0)
(650 9.35817e-13 0)
(650 1.91237e-13 0)
(650 -1.33195e-12 0)
(650 -2.73331e-12 0)
(650 -4.55072e-12 0)
(650 -7.73131e-12 0)
(650 -1.27966e-11 0)
(650 -1.77876e-11 0)
(650 7.09464e-12 0)
(650 1.23984e-10 0)
(650 7.16056e-10 0)
(650 2.914e-09 0)
(650 1.03181e-08 0)
(650 3.33002e-08 0)
(650 9.98503e-08 0)
(650 2.7961e-07 0)
(650 7.29825e-07 0)
(650 1.82224e-06 0)
(650 4.35291e-06 0)
(650 9.63079e-06 0)
(650 1.85453e-05 0)
(650 3.77825e-05 0)
(650 -2.75648e-13 0)
(650 -8.64302e-14 0)
(650 -6.31894e-14 0)
(650 -6.19281e-13 0)
(650 -1.37843e-13 0)
(650 -1.31149e-13 0)
(650 -3.38352e-13 0)
(650 2.00738e-13 0)
(650 3.86137e-13 0)
(650 7.08269e-13 0)
(650 4.88106e-13 0)
(650 -1.14608e-13 0)
(650 -1.12368e-13 0)
(650 -3.95703e-13 0)
(650 -5.57199e-13 0)
(650 -1.53884e-13 0)
(650 2.79879e-13 0)
(650 3.6107e-13 0)
(650 3.74359e-13 0)
(650 -9.83863e-13 0)
(650 -5.67515e-13 0)
(650 6.67936e-13 0)
(650 -1.88173e-14 0)
(650 6.07427e-13 0)
(650 8.98271e-14 0)
(650 2.01952e-13 0)
(650 6.39068e-13 0)
(650 1.25624e-12 0)
(650 1.2431e-12 0)
(650 7.85223e-13 0)
(650 -8.48192e-13 0)
(650 -2.56155e-12 0)
(650 -4.57762e-12 0)
(650 -7.06715e-12 0)
(650 -1.06943e-11 0)
(650 -7.27076e-12 0)
(650 3.56012e-11 0)
(650 2.47577e-10 0)
(650 9.64902e-10 0)
(650 3.44348e-09 0)
(650 1.14286e-08 0)
(650 3.57095e-08 0)
(650 1.05238e-07 0)
(650 2.91444e-07 0)
(650 7.46942e-07 0)
(650 1.85993e-06 0)
(650 4.4725e-06 0)
(650 9.64653e-06 0)
(650 1.75304e-05 0)
(650 3.41816e-05 0)
(650 -1.25313e-13 0)
(650 -2.11542e-13 0)
(650 -3.71024e-13 0)
(650 -7.58728e-13 0)
(650 -2.95959e-13 0)
(650 -1.5702e-13 0)
(650 -4.17787e-13 0)
(650 8.3684e-14 0)
(650 2.7703e-13 0)
(650 1.11858e-12 0)
(650 5.22739e-13 0)
(650 -1.58704e-13 0)
(650 -1.3679e-13 0)
(650 -2.54528e-13 0)
(650 -6.67139e-13 0)
(650 -9.05547e-14 0)
(650 3.71489e-13 0)
(650 4.38867e-13 0)
(650 4.56279e-13 0)
(650 -9.53223e-13 0)
(650 -7.82627e-13 0)
(650 5.92948e-13 0)
(650 -1.75934e-13 0)
(650 8.16845e-13 0)
(650 3.86293e-13 0)
(650 -5.95809e-14 0)
(650 7.31655e-13 0)
(650 1.13339e-12 0)
(650 1.57812e-12 0)
(650 1.2056e-12 0)
(650 -3.91641e-13 0)
(650 -2.1733e-12 0)
(650 -4.48592e-12 0)
(650 -6.33501e-12 0)
(650 -8.4909e-12 0)
(650 -4.83233e-13 0)
(650 4.84233e-11 0)
(650 2.85288e-10 0)
(650 1.08107e-09 0)
(650 3.70035e-09 0)
(650 1.19398e-08 0)
(650 3.67905e-08 0)
(650 1.07924e-07 0)
(650 2.9884e-07 0)
(650 7.56055e-07 0)
(650 1.90645e-06 0)
(650 4.60571e-06 0)
(650 9.69654e-06 0)
(650 1.69362e-05 0)
(650 3.00331e-05 0)
(650 2.31024e-15 0)
(650 -2.48615e-13 0)
(650 -6.19981e-13 0)
(650 -6.90434e-13 0)
(650 -4.17245e-13 0)
(650 -2.43022e-13 0)
(650 -2.64829e-13 0)
(650 -1.04976e-13 0)
(650 3.42192e-13 0)
(650 1.26142e-12 0)
(650 7.34775e-13 0)
(650 -8.60615e-14 0)
(650 -1.7133e-13 0)
(650 -7.48385e-14 0)
(650 -4.96138e-13 0)
(650 9.28948e-14 0)
(650 2.69673e-13 0)
(650 4.48161e-13 0)
(650 3.24753e-13 0)
(650 -8.73057e-13 0)
(650 -1.0962e-12 0)
(650 2.36007e-13 0)
(650 -2.76841e-13 0)
(650 8.40399e-13 0)
(650 9.5963e-13 0)
(650 -3.16999e-13 0)
(650 7.16705e-13 0)
(650 1.16444e-12 0)
(650 1.8784e-12 0)
(650 1.63162e-12 0)
(650 1.82305e-14 0)
(650 -1.70474e-12 0)
(650 -4.49258e-12 0)
(650 -5.45775e-12 0)
(650 -6.56114e-12 0)
(650 3.15278e-12 0)
(650 5.21979e-11 0)
(650 2.77834e-10 0)
(650 1.09117e-09 0)
(650 3.74652e-09 0)
(650 1.20788e-08 0)
(650 3.71447e-08 0)
(650 1.09331e-07 0)
(650 3.04758e-07 0)
(650 7.60721e-07 0)
(650 1.9749e-06 0)
(650 4.74081e-06 0)
(650 9.7368e-06 0)
(650 1.66964e-05 0)
(650 2.54405e-05 0)
(650 4.67107e-14 0)
(650 -2.82754e-13 0)
(650 -6.4724e-13 0)
(650 -7.02609e-13 0)
(650 -6.24545e-13 0)
(650 -3.97287e-13 0)
(650 -2.64623e-13 0)
(650 -2.29861e-13 0)
(650 2.32377e-13 0)
(650 1.126e-12 0)
(650 1.02183e-12 0)
(650 8.9768e-14 0)
(650 -3.07414e-13 0)
(650 -3.24525e-14 0)
(650 -4.69058e-13 0)
(650 -1.05379e-13 0)
(650 1.50495e-13 0)
(650 4.39774e-13 0)
(650 5.1302e-13 0)
(650 -7.54316e-13 0)
(650 -1.5144e-12 0)
(650 -2.84848e-14 0)
(650 -1.35152e-13 0)
(650 5.86863e-13 0)
(650 1.51817e-12 0)
(650 -6.713e-13 0)
(650 4.70157e-13 0)
(650 1.22084e-12 0)
(650 1.88554e-12 0)
(650 1.98653e-12 0)
(650 3.93878e-13 0)
(650 -1.29606e-12 0)
(650 -4.40652e-12 0)
(650 -4.41582e-12 0)
(650 -5.32824e-12 0)
(650 3.73903e-12 0)
(650 4.83762e-11 0)
(650 2.45912e-10 0)
(650 1.00002e-09 0)
(650 3.53605e-09 0)
(650 1.16249e-08 0)
(650 3.61173e-08 0)
(650 1.07999e-07 0)
(650 3.06154e-07 0)
(650 7.54067e-07 0)
(650 2.05889e-06 0)
(650 4.84332e-06 0)
(650 9.76763e-06 0)
(650 1.65972e-05 0)
(650 2.16588e-05 0)
(38.029 126.971 1.2156e-19)
(383.284 235.284 8.92438e-20)
(364.255 390.031 -2.58046e-19)
(486.549 33.1144 8.74116e-18)
(548.871 1.51114 -5.01874e-19)
(734.055 115.612 3.76794e-17)
(650.304 45.5303 0)
(557.282 -50.4229 -3.81386e-18)
(457.282 -202.043 9.21638e-19)
(375.189 -255.912 6.28327e-17)
(328.196 -260.139 3.42108e-18)
(321.779 -208.932 -1.0857e-16)
(247.479 -157.233 -8.39423e-17)
(20.2397 36.5168 0)
(-22.5434 -38.7486 1.07057e-17)
(74.1503 150.654 0)
(366.724 229.312 -6.93058e-18)
(345.815 315.365 0)
(482.73 55.0677 -7.63969e-18)
(549.046 46.3751 -3.27411e-17)
(707.496 216.651 -5.27917e-17)
(679.21 85.4574 -3.01907e-17)
(573.625 -34.2686 1.19971e-18)
(453.777 -213.512 2.49723e-17)
(358.856 -285.453 -3.38931e-17)
(342.269 -290.355 -8.122e-17)
(388.263 -190.55 -2.07362e-18)
(284.335 -151.683 6.78829e-17)
(14.3597 18.8088 0)
(-38.3078 -53.5072 9.97679e-18)
(71.6323 169.21 0)
(331.298 232.764 7.36001e-18)
(314.659 307.19 -2.50736e-17)
(459.79 87.4678 0)
(512.898 90.3878 5.25633e-17)
(608.33 240.347 6.20391e-17)
(678.879 36.8535 2.32826e-17)
(565.709 -91.2291 1.4636e-18)
(432.708 -225.629 -2.36029e-17)
(361.162 -305.121 -7.18776e-17)
(362.434 -273.964 1.74463e-16)
(424.159 -170.273 5.75886e-17)
(349.459 -129.616 5.45466e-17)
(29.0533 22.8842 4.3787e-17)
(-50.3541 -67.5067 -4.56325e-18)
(87.9427 182.752 0)
(296.394 239.748 -1.06357e-17)
(314.802 316.778 1.52645e-17)
(429.786 138.8 1.83821e-19)
(486.225 108.47 6.53941e-18)
(563.544 181.222 -9.7951e-17)
(664.408 2.69934 2.22167e-17)
(555.624 -126.876 1.51401e-18)
(411.144 -270.383 -5.3268e-17)
(375.89 -313.727 8.14297e-17)
(431.082 -201.138 -1.55933e-16)
(447.82 -153.19 -3.07927e-18)
(400.094 -115.786 -2.62101e-18)
(43.9691 48.8522 -1.52787e-18)
(-65.381 -82.2659 -4.32825e-18)
(130.147 199.514 0)
(308.383 240.295 1.99087e-17)
(344.046 327.072 2.13996e-19)
(435.958 145.882 0)
(485.607 104.498 -2.002e-17)
(546.774 141.026 9.17643e-17)
(649.245 -20.9791 -2.24959e-17)
(526.25 -180.798 -1.0203e-18)
(424.251 -290.401 8.50006e-17)
(397.425 -296.078 1.17381e-18)
(457.658 -171.696 6.69688e-17)
(454.281 -152.185 -1.07835e-16)
(416.284 -110.848 -4.95416e-17)
(38.5704 88.6844 -1.21556e-16)
(-90.4771 -100.978 7.65596e-18)
(-20.0989 -28.7359 0)
(27.394 -93.6053 -2.01855e-18)
(233.511 123.086 -3.88671e-18)
(218.614 198.613 1.14195e-16)
(281.767 215.231 0)
(381.908 199.568 9.17872e-17)
(465.522 182.974 2.92442e-17)
(561.327 76.1266 -1.34745e-18)
(653.103 -42.1411 -9.50365e-19)
(571.976 -250.379 6.00063e-19)
(587.233 -177.593 3.48842e-18)
(602.277 -97.3559 2.27803e-17)
(499.955 -214.844 -7.92575e-19)
(13.6452 119.032 0)
(-67.435 196.546 -4.70208e-18)
(-31.2796 -24.2463 0)
(22.33 -103.351 0)
(289.765 137.565 -7.93629e-17)
(251.037 200.216 -9.41536e-17)
(268.216 220.987 -1.2031e-18)
(365.019 195.773 6.7062e-18)
(466.759 205.686 3.13258e-17)
(580.314 77.9303 -3.11508e-19)
(676.205 -149.631 3.57641e-17)
(619.198 -265.663 6.33012e-17)
(555.073 -332.827 0)
(592.685 -115.243 -1.1575e-17)
(440.517 -223.236 5.33276e-17)
(43.51 110.624 2.26072e-19)
(-46.8263 199.81 0)
(-43.6715 -12.8995 0)
(30.3909 -116.059 -1.19952e-18)
(336.607 140.931 1.09027e-18)
(301.148 177.74 -7.78424e-17)
(286.054 223.623 0)
(344.876 217.679 -6.96584e-17)
(455.872 216.781 -9.45546e-17)
(581.837 109.33 0)
(668.067 -108.955 -2.8959e-17)
(649.871 -181.144 6.33119e-18)
(497.915 -355.808 -1.30802e-18)
(558.46 -152.909 2.13689e-19)
(333.301 -304.46 -6.66447e-17)
(85.4849 53.0635 0)
(-36.8887 216.694 0)
(-59.503 3.92511 0)
(33.5894 -131.419 0)
(383.183 135.487 5.94016e-17)
(339.036 164.557 6.9633e-17)
(303.203 218.989 7.22947e-17)
(338.879 236.177 -2.36291e-19)
(440.373 225.012 5.71112e-17)
(572.918 142.738 -8.98953e-19)
(650.331 -90.2022 2.87432e-17)
(656.396 -141.431 -4.62827e-17)
(519.937 -284.352 2.51544e-18)
(512.235 -223.448 -6.68433e-19)
(355.429 -334.482 2.06025e-17)
(181.204 -84.1778 9.84369e-19)
(-11.6351 224.76 -3.51122e-18)
(-86.4081 29.8449 0)
(23.2185 -148.205 -9.77398e-19)
(411.489 133.788 -5.33651e-19)
(352.523 162.901 -6.51055e-17)
(306.849 220.352 -6.55601e-17)
(333.093 248.046 -1.01742e-18)
(428.933 234.299 2.70559e-17)
(559.214 162.65 8.29699e-19)
(643.335 -43.2021 -2.40341e-17)
(662.354 -108.651 4.76689e-17)
(570.863 -216.187 4.67445e-17)
(524.779 -220.997 -7.23753e-19)
(402.32 -359.964 -2.72694e-17)
(241.541 -264.529 0)
(31.7685 216.834 3.25714e-18)
(650 -3.26308e-05 0)
(650 -2.22238e-05 0)
(650 -1.55708e-05 0)
(650 -6.7905e-06 0)
(650 -2.80126e-06 0)
(650 -1.09819e-06 0)
(650 -4.09801e-07 0)
(650 -1.45089e-07 0)
(650 -4.89373e-08 0)
(650 -1.56013e-08 0)
(650 -4.63887e-09 0)
(650 -1.25293e-09 0)
(650 -2.91809e-10 0)
(650 -4.42278e-11 0)
(650 2.19783e-12 0)
(650 8.68941e-12 0)
(650 5.07265e-12 0)
(650 2.51533e-12 0)
(650 1.27584e-12 0)
(650 1.19548e-12 0)
(650 7.28103e-13 0)
(650 7.85274e-14 0)
(650 -3.47822e-13 0)
(650 -1.60453e-13 0)
(650 -1.71514e-13 0)
(650 -2.5616e-13 0)
(650 -3.36891e-14 0)
(650 -5.91693e-14 0)
(650 6.83914e-14 0)
(650 1.29431e-13 0)
(650 3.20979e-13 0)
(650 4.23666e-13 0)
(650 4.80451e-15 0)
(650 2.92663e-13 0)
(650 5.03371e-13 0)
(650 3.08749e-13 0)
(650 -1.48695e-13 0)
(650 -3.19246e-13 0)
(650 -5.56993e-15 0)
(650 -4.86074e-13 0)
(650 -5.21084e-13 0)
(650 4.8303e-13 0)
(650 7.74968e-13 0)
(650 7.00727e-13 0)
(650 2.0456e-13 0)
(650 -1.22557e-14 0)
(650 1.25328e-13 0)
(650 5.27411e-14 0)
(650 1.32144e-13 0)
(650 7.14897e-14 0)
(650 -2.64118e-05 0)
(650 -2.07631e-05 0)
(650 -1.5773e-05 0)
(650 -6.97197e-06 0)
(650 -2.84569e-06 0)
(650 -1.11749e-06 0)
(650 -4.17106e-07 0)
(650 -1.48285e-07 0)
(650 -5.06511e-08 0)
(650 -1.64978e-08 0)
(650 -5.08257e-09 0)
(650 -1.46495e-09 0)
(650 -3.87524e-10 0)
(650 -8.97351e-11 0)
(650 -8.21117e-12 0)
(650 4.87426e-12 0)
(650 4.28136e-12 0)
(650 2.03621e-12 0)
(650 1.33925e-12 0)
(650 1.39143e-12 0)
(650 7.01937e-13 0)
(650 -3.44587e-13 0)
(650 -3.5947e-13 0)
(650 -1.89583e-13 0)
(650 -1.51565e-14 0)
(650 -1.38892e-13 0)
(650 -7.19163e-14 0)
(650 -2.67106e-13 0)
(650 2.96986e-13 0)
(650 3.08075e-13 0)
(650 3.59641e-13 0)
(650 3.34336e-14 0)
(650 -3.5877e-14 0)
(650 3.33301e-13 0)
(650 6.17137e-13 0)
(650 1.79529e-13 0)
(650 -4.66311e-13 0)
(650 -6.25148e-13 0)
(650 8.67834e-14 0)
(650 -4.17862e-13 0)
(650 -4.96001e-13 0)
(650 1.12832e-12 0)
(650 1.13165e-12 0)
(650 5.03138e-13 0)
(650 5.68418e-14 0)
(650 1.40497e-14 0)
(650 3.2172e-13 0)
(650 6.1938e-14 0)
(650 3.1709e-13 0)
(650 3.99988e-14 0)
(650 -1.97437e-05 0)
(650 -2.01964e-05 0)
(650 -1.59658e-05 0)
(650 -7.15614e-06 0)
(650 -2.87375e-06 0)
(650 -1.12186e-06 0)
(650 -4.15147e-07 0)
(650 -1.46768e-07 0)
(650 -5.0281e-08 0)
(650 -1.65214e-08 0)
(650 -5.17928e-09 0)
(650 -1.53932e-09 0)
(650 -4.25299e-10 0)
(650 -1.0194e-10 0)
(650 -1.23221e-11 0)
(650 1.76483e-12 0)
(650 3.40941e-12 0)
(650 1.66188e-12 0)
(650 1.27097e-12 0)
(650 1.31442e-12 0)
(650 5.07084e-13 0)
(650 -6.34493e-13 0)
(650 -4.67913e-13 0)
(650 -3.41321e-13 0)
(650 -1.01864e-13 0)
(650 1.21982e-13 0)
(650 -1.18793e-13 0)
(650 -2.22088e-13 0)
(650 4.96193e-13 0)
(650 7.34312e-13 0)
(650 5.59722e-13 0)
(650 -2.687e-13 0)
(650 -1.98377e-13 0)
(650 4.44668e-13 0)
(650 7.35258e-13 0)
(650 -3.49115e-14 0)
(650 -6.67166e-13 0)
(650 -6.71703e-13 0)
(650 2.25069e-13 0)
(650 -4.03106e-13 0)
(650 -2.67815e-13 0)
(650 1.59423e-12 0)
(650 1.4575e-12 0)
(650 3.33438e-13 0)
(650 1.58582e-13 0)
(650 1.23125e-13 0)
(650 4.59813e-13 0)
(650 2.18573e-13 0)
(650 2.85699e-13 0)
(650 1.02079e-15 0)
(650 -1.29949e-05 0)
(650 -2.01438e-05 0)
(650 -1.609e-05 0)
(650 -7.36146e-06 0)
(650 -2.90167e-06 0)
(650 -1.12068e-06 0)
(650 -4.08603e-07 0)
(650 -1.42734e-07 0)
(650 -4.88251e-08 0)
(650 -1.60532e-08 0)
(650 -5.0594e-09 0)
(650 -1.51527e-09 0)
(650 -4.20426e-10 0)
(650 -9.76251e-11 0)
(650 -1.32422e-11 0)
(650 -4.51865e-14 0)
(650 2.46161e-12 0)
(650 1.1814e-12 0)
(650 1.1092e-12 0)
(650 1.14033e-12 0)
(650 1.18074e-14 0)
(650 -8.8835e-13 0)
(650 -4.62488e-13 0)
(650 -4.30361e-13 0)
(650 -1.35495e-13 0)
(650 4.32359e-13 0)
(650 -7.71019e-14 0)
(650 1.64708e-13 0)
(650 7.375e-13 0)
(650 1.11383e-12 0)
(650 5.8837e-13 0)
(650 -4.10711e-13 0)
(650 -2.28883e-13 0)
(650 6.72265e-13 0)
(650 6.13828e-13 0)
(650 -4.88081e-13 0)
(650 -9.35945e-13 0)
(650 -4.36059e-13 0)
(650 4.57702e-13 0)
(650 -3.70661e-13 0)
(650 2.92464e-13 0)
(650 2.00133e-12 0)
(650 1.45059e-12 0)
(650 3.79312e-13 0)
(650 5.02133e-14 0)
(650 1.07038e-13 0)
(650 3.64199e-13 0)
(650 2.93394e-13 0)
(650 2.5184e-13 0)
(650 -2.01507e-14 0)
(650 -7.71416e-06 0)
(650 -2.02779e-05 0)
(650 -1.61883e-05 0)
(650 -7.55486e-06 0)
(650 -2.91958e-06 0)
(650 -1.10661e-06 0)
(650 -3.93996e-07 0)
(650 -1.34649e-07 0)
(650 -4.56391e-08 0)
(650 -1.48319e-08 0)
(650 -4.62432e-09 0)
(650 -1.36856e-09 0)
(650 -3.71144e-10 0)
(650 -8.20699e-11 0)
(650 -1.11966e-11 0)
(650 -2.79374e-13 0)
(650 1.76467e-12 0)
(650 7.67613e-13 0)
(650 1.02116e-12 0)
(650 1.03504e-12 0)
(650 -3.89801e-13 0)
(650 -1.19465e-12 0)
(650 -4.70992e-13 0)
(650 -2.27818e-13 0)
(650 9.27131e-14 0)
(650 5.42119e-13 0)
(650 -1.55673e-14 0)
(650 4.12041e-13 0)
(650 9.52013e-13 0)
(650 1.45977e-12 0)
(650 4.56261e-13 0)
(650 -5.2938e-13 0)
(650 -2.59194e-13 0)
(650 8.52902e-13 0)
(650 1.73226e-13 0)
(650 -9.42539e-13 0)
(650 -1.13887e-12 0)
(650 -2.99165e-13 0)
(650 4.80856e-13 0)
(650 -5.76778e-13 0)
(650 8.09709e-13 0)
(650 2.57771e-12 0)
(650 1.10739e-12 0)
(650 3.76427e-13 0)
(650 -6.5545e-14 0)
(650 2.1676e-13 0)
(650 3.45963e-13 0)
(650 3.032e-13 0)
(650 2.53721e-13 0)
(650 -2.57159e-14 0)
(650 -1.48746e-13 0)
(650 -4.45357e-14 0)
(650 -1.79251e-14 1.08353e-17)
(650 1.44214e-13 -1.12694e-17)
(650 1.41964e-14 0)
(650 2.85754e-13 0)
(650 2.25669e-13 1.10452e-17)
(650 -8.27691e-13 4.39274e-17)
(650 -9.82237e-13 0)
(650 -2.36257e-13 0)
(650 6.02268e-13 -2.14808e-17)
(650 -2.04927e-13 -2.14836e-17)
(650 -2.63248e-13 -2.16568e-17)
(650 -3.47347e-13 -2.1481e-17)
(650 9.33273e-14 -2.10497e-17)
(650 -1.13175e-13 2.08144e-17)
(650 3.81745e-13 4.1707e-17)
(650 1.02326e-12 4.17979e-17)
(650 -1.71553e-13 0)
(650 1.50468e-12 2.0994e-17)
(650 1.77993e-12 -4.1848e-17)
(650 7.58017e-13 -2.08583e-17)
(650 7.66944e-12 0)
(650 7.58235e-11 2.08522e-17)
(650 5.47735e-10 -2.08795e-17)
(650 4.1739e-09 2.09202e-17)
(650 3.39319e-08 -2.09804e-17)
(650 2.94425e-07 4.22666e-17)
(650 2.49199e-06 0)
(650 8.9982e-06 0)
(650 2.51967e-05 3.75574e-17)
(650 2.68354e-05 -1.07183e-17)
(650 -2.55235e-07 -1.0952e-17)
(650 9.19025e-07 -2.26329e-17)
(650 -1.23087e-06 0)
(650 -5.91626e-06 0)
(650 -2.52937e-06 -1.04296e-17)
(650 -4.34673e-07 0)
(650 -2.50899e-08 2.09609e-17)
(650 -1.58648e-10 -1.11321e-28)
(650 1.75643e-12 2.07869e-17)
(650 -7.39856e-13 -2.07531e-17)
(650 1.09768e-12 2.07486e-17)
(650 1.20694e-12 1.01638e-30)
(650 -6.50128e-13 0)
(650 1.96871e-12 4.15653e-17)
(650 -4.19755e-13 0)
(650 -1.29119e-12 -2.07967e-17)
(650 1.72489e-11 0)
(650 1.16863e-05 -1.04299e-17)
(649.999 0.113878 -3.13311e-17)
(649.798 0.318896 0)
(649.917 -1.88902 0)
(647.178 -2.86545 4.25571e-17)
(636.35 -3.4716 0)
(573.924 -8.44072 8.43501e-18)
(487.866 51.5673 0)
(442.14 -7.77805 4.55283e-17)
(242.52 -131.013 0)
(324.314 359.459 -1.29546e-17)
(379.066 294.206 1.28385e-17)
(649.986 0.0124914 -2.91808e-17)
(505.209 296.288 0)
(467.592 132.21 -3.28283e-18)
(511.434 92.7715 -9.1413e-18)
(541.134 84.252 -8.03861e-18)
(606.259 -84.4909 0)
(551.275 -230.135 -2.45261e-17)
(487.79 -269.421 -2.8319e-17)
(477.309 -173.726 -2.10369e-17)
(460.975 -163.546 1.58107e-17)
(449.652 -166.125 1.79037e-17)
(427.061 -121.457 0)
(18.3774 166.219 8.72806e-17)
(-278.362 -199.209 1.63992e-17)
(578.422 -35.9352 5.61818e-18)
(648.279 1.46116 0)
(649.986 0.00430266 9.14069e-18)
(650 3.12128e-05 0)
(650 1.59879e-07 0)
(650 8.88727e-10 0)
(650 4.0377e-12 0)
(650 4.35376e-13 -1.50258e-17)
(650 -2.89143e-13 0)
(650 4.56221e-13 -7.62123e-18)
(650 5.99311e-05 -1.93454e-17)
(650 -4.80875e-06 1.09343e-17)
(-91.5877 -270.777 -2.37337e-16)
(650 -1.47267e-13 0)
(650 -7.62491e-14 0)
(650 2.1312e-14 -2.15535e-17)
(650 3.91865e-14 0)
(650 5.63185e-15 1.09603e-17)
(650 7.36935e-14 -3.51046e-19)
(650 2.39271e-14 3.34205e-17)
(650 -9.9645e-14 -3.37901e-17)
(650 -4.42987e-13 3.17173e-17)
(650 -9.47882e-13 -2.19885e-17)
(650 -4.49708e-13 0)
(650 -2.80294e-13 -2.13223e-17)
(650 4.61141e-13 -2.15301e-17)
(650 -3.50311e-13 0)
(650 -5.45909e-13 4.31939e-17)
(650 -8.22182e-14 2.1295e-17)
(650 5.70611e-13 -2.08915e-17)
(650 -8.62266e-13 4.17177e-17)
(650 3.14209e-13 -2.08565e-17)
(650 2.25441e-12 2.09619e-17)
(650 6.38867e-13 2.08382e-17)
(650 2.25433e-12 -7.00283e-31)
(650 1.0097e-12 2.09623e-17)
(650 1.00033e-12 0)
(650 2.43688e-11 0)
(650 2.03909e-10 -2.08788e-17)
(650 1.50445e-09 0)
(650 1.17435e-08 2.09263e-17)
(650 1.03691e-07 2.10422e-17)
(650 8.06293e-07 0)
(650 5.40069e-06 -2.16645e-17)
(650 1.9289e-13 0)
(650 1.55827e-05 2.26817e-17)
(650 -1.35688e-06 1.04074e-17)
(650 3.7608e-07 2.24198e-17)
(650 2.06514e-06 1.11508e-17)
(650 -2.66415e-13 0)
(650 -6.84657e-06 0)
(650 -2.84538e-06 0)
(650 -1.18281e-06 -1.98477e-17)
(324.509 151.399 -1.79872e-16)
(650 -5.68009e-07 1.92437e-17)
(650 -1.05685e-07 2.09494e-17)
(650 -1.63989e-09 0)
(650 -5.64192e-12 1.06079e-29)
(650 5.90083e-13 -2.07755e-17)
(650 -9.89431e-13 1.10579e-30)
(650 2.26068e-12 0)
(650 6.86759e-13 0)
(650 -3.74659e-13 2.07174e-17)
(650 -5.09603e-14 0)
(650 3.39816e-13 2.07939e-17)
(650 -2.00339e-12 0)
(650 1.16686e-08 0)
(650 0.0125354 -2.09007e-17)
(649.996 0.22467 -2.1215e-17)
(649.187 -1.78386 0)
(647.964 -0.940954 0)
(648.558 -5.02896 -1.54628e-17)
(615.232 -2.99158 0)
(511.324 -15.2062 0)
(481.502 86.7051 0)
(352.977 284.799 2.38949e-17)
(524.952 93.8673 -5.69746e-19)
(508.102 347.638 0)
(383.579 271.608 -2.48739e-17)
(551.843 188.052 2.71854e-18)
(536.78 69.1774 9.11155e-18)
(587.43 -16.8918 0)
(579.961 -173.035 -2.00394e-17)
(529.774 -273.403 9.15771e-17)
(530.487 -186.855 1.21491e-18)
(488.904 -149.957 -3.39599e-17)
(456.428 -163.616 -2.87347e-17)
(433.474 -164.665 0)
(378.671 -143.81 0)
(620.44 17.484 1.45614e-17)
(649.79 0.0876063 -1.15905e-17)
(649.999 0.000381913 0)
(650 -0.000137212 3.19619e-18)
(650 2.15776e-06 4.33108e-25)
(650 -3.48188e-07 1.66157e-17)
(650 1.13658e-08 -2.07964e-27)
(650 6.15348e-11 1.41413e-17)
(650 9.0804e-13 -3.58132e-17)
(650 -3.38447e-13 -2.27019e-17)
(650 -1.52312e-13 0)
(650 6.884e-14 -1.11627e-17)
(650 1.59362e-13 -1.12249e-17)
(650 -1.13468e-13 1.24232e-17)
(650 -1.07333e-13 4.22398e-20)
(650 -5.45698e-14 0)
(650 5.78315e-13 0)
(650 -1.89853e-12 2.15121e-17)
(650 -1.51433e-14 0)
(650 5.79617e-14 -2.15701e-17)
(650 3.83094e-13 2.92191e-31)
(650 -8.80345e-13 2.0961e-17)
(650 1.55532e-12 -4.15839e-17)
(650 -1.09264e-12 -2.08748e-17)
(650 -4.17407e-13 -4.18801e-17)
(650 1.10116e-12 1.01637e-20)
(650 8.22578e-13 2.08884e-17)
(650 -1.61814e-12 1.02074e-20)
(650 2.16849e-12 4.07688e-20)
(650 3.2944e-12 0)
(650 2.4602e-11 -2.08494e-17)
(650 1.95618e-10 2.08954e-17)
(650 1.21885e-09 -2.09026e-17)
(650 4.55779e-09 2.10592e-17)
(650 9.32142e-08 -2.14598e-17)
(650 7.53059e-07 0)
(650 1.61959e-05 0)
(650 3.45664e-06 -2.17914e-17)
(650 -1.92651e-07 1.1307e-17)
(650 -3.74216e-06 -1.53108e-18)
(650 -1.38774e-07 -6.362e-19)
(650 5.54495e-09 -1.6328e-19)
(650 3.83873e-11 4.15742e-17)
(650 -7.59067e-13 -2.07454e-17)
(650 2.00285e-12 2.07778e-17)
(650 -1.8289e-13 0)
(650 8.32857e-14 -2.07996e-17)
(650 2.28022e-13 -2.07711e-17)
(650 -1.87697e-12 -2.07891e-17)
(650 -6.0496e-13 -2.07798e-17)
(650 1.67601e-12 0)
(650 4.52729e-10 0)
(650 0.000300808 3.11872e-17)
(649.998 0.0517201 3.14229e-17)
(649.445 0.269903 0)
(649.548 -0.872492 3.99967e-18)
(647.477 -1.35454 -2.54322e-17)
(624.706 -4.76699 0)
(545.202 12.3792 -9.65416e-18)
(520.589 194.853 0)
(494.028 274.281 -1.73569e-17)
(649.968 0.0673965 -2.59351e-22)
(457.047 -13.9175 -8.41137e-18)
(649.427 -0.520441 1.22132e-17)
(649.998 -0.00234126 -3.91444e-18)
(650 -6.69209e-06 -2.08497e-17)
(650 -2.89039e-08 1.41093e-17)
(650 -1.03017e-10 -1.67859e-17)
(650 1.01524e-13 1.54333e-17)
(650 -6.36528e-13 2.52461e-17)
(650 -1.5066e-12 4.30546e-17)
(650 -2.7918e-13 2.16223e-17)
(650 1.22887e-12 -2.16989e-17)
(650 -8.5614e-13 2.10845e-17)
(650 3.3521e-13 8.13645e-20)
(650 7.33546e-13 -4.15815e-17)
(650 2.01955e-13 -1.25581e-30)
(650 3.63535e-13 2.04778e-20)
(650 2.46918e-13 -4.18221e-17)
(650 -1.25852e-12 -7.14867e-31)
(650 -3.93013e-13 2.08995e-17)
(650 1.87588e-12 0)
(650 8.28572e-12 2.03539e-20)
(650 7.32465e-11 2.08616e-17)
(650 5.10682e-10 0)
(650 2.72102e-09 -2.09072e-17)
(650 1.16933e-08 -4.24265e-17)
(650 2.35117e-07 3.40282e-19)
(650 2.74539e-06 2.179e-17)
(650 -9.26771e-07 1.02144e-17)
(650 1.32007e-06 0)
(650 3.05268e-06 1.38797e-18)
(650 1.3473e-12 4.13801e-17)
(650 9.58545e-13 -4.15353e-17)
(650 3.7664e-13 2.07597e-17)
(650 2.853e-13 0)
(650 -1.46595e-12 -2.06881e-17)
(650 2.08563e-13 2.02385e-20)
(650 2.4516e-13 2.07449e-17)
(650 2.25527e-12 4.06062e-20)
(650 2.85117e-07 0)
(650 0.0152603 2.08918e-17)
(649.971 0.127687 6.68149e-19)
(649.437 -0.362425 0)
(647.033 -2.14613 -1.96721e-17)
(646.107 -3.91984 1.55709e-17)
(599.708 0.527606 -3.82905e-18)
(492.173 81.08 0)
(513.629 210.613 -1.43955e-17)
(344.102 313.921 0)
(650 1.03486e-13 -4.27412e-17)
(650 -4.93093e-13 2.10225e-17)
(650 5.4167e-13 -1.01896e-17)
(650 -5.35817e-06 -1.11718e-17)
(650 -1.61953e-12 -2.07943e-17)
(650 2.4401e-10 -2.09411e-17)
(650 4.54988e-08 -4.15372e-17)
(650 -2.14243e-13 0)
(650 6.65214e-13 3.57862e-17)
(650 -5.51413e-12 0)
(649.98 -0.0441742 -9.95695e-18)
(639.392 -9.59755 0)
(650 -1.648e-09 -1.08482e-17)
(650 -1.14314e-13 2.16163e-17)
(650 -4.21029e-13 0)
(650 1.11219e-13 2.01971e-17)
(650 1.94277e-13 0)
(650 3.26132e-13 -2.21923e-17)
(650 -6.48431e-07 1.09609e-18)
(650 6.70203e-06 -3.42231e-17)
(650 -6.66562e-13 3.33921e-19)
(650 5.35451e-13 -2.1377e-17)
(650 -2.12296e-08 2.13443e-17)
(650 3.99824e-13 0)
(650 -6.5434e-13 0)
(650 1.59073e-06 2.22063e-17)
(650 -2.13109e-13 -2.15446e-17)
(650 3.66954e-13 -2.16746e-17)
(650 -1.61996e-13 0)
(650 1.26124e-13 2.08459e-17)
(650 1.38711e-12 -1.61272e-30)
(650 -4.87954e-13 5.09749e-21)
(650 -7.42772e-13 2.08079e-17)
(650 4.31427e-13 -2.08843e-17)
(650 -8.82146e-13 -2.08908e-17)
(650 -6.02461e-13 2.08089e-17)
(650 3.01035e-12 -2.09413e-17)
(650 3.02157e-12 -2.08085e-17)
(650 -9.99825e-12 2.07751e-17)
(650 -6.06036e-11 0)
(650 -8.06832e-10 -2.09338e-17)
(650 -7.78558e-09 2.10155e-17)
(650 -3.3202e-08 4.2634e-17)
(650 -1.03305e-06 -2.22036e-17)
(650 2.0257e-06 2.10714e-17)
(650 1.5967e-06 -2.26127e-17)
(650 9.66287e-07 -1.86499e-17)
(650 4.14995e-13 5.16015e-31)
(650 -5.38657e-14 2.10766e-17)
(650 -5.94427e-13 -2.11978e-17)
(650 -5.482e-12 2.07229e-17)
(650 -8.82027e-06 -4.6238e-18)
(650 3.66617e-07 -2.32066e-17)
(650 -3.6198e-06 2.20012e-17)
(650 8.32526e-13 2.07614e-17)
(650 3.14977e-13 -2.16717e-17)
(650 1.09825e-14 2.352e-17)
(650 -1.253e-13 2.18208e-17)
(575.036 -76.7816 5.33051e-18)
(650 -1.88295e-13 -1.77423e-17)
(650 -6.51045e-11 -2.07336e-17)
(650 3.61653e-12 2.07139e-17)
(650 -2.41074e-12 2.0787e-17)
(650 -2.11542e-12 0)
(650 -5.9329e-10 2.08615e-17)
(650 1.20756e-10 -2.08714e-17)
(650 1.02446e-12 0)
(650 -8.58203e-14 0)
(650 -4.74484e-15 2.07109e-17)
(650 -1.91342e-12 -2.0662e-17)
(650 2.59348e-13 -2.07718e-17)
(650 5.13221e-13 0)
(650 1.13805e-12 -4.06057e-20)
(650 -5.19631e-09 0)
(650 6.53225e-05 -1.62011e-19)
(649.999 0.00224073 2.06904e-17)
(648.996 0.624767 -1.36218e-17)
(647.658 0.402954 -1.99541e-17)
(644.428 1.19312 -1.37361e-17)
(615.211 32.9673 -1.00467e-17)
(603.331 159.52 -2.27653e-17)
(602.629 208.988 0)
(497.554 209.578 -7.05165e-18)
(303.225 240.693 8.26955e-18)
(650 5.46455e-14 4.42935e-17)
(650 -8.76362e-14 -2.94697e-31)
(591.04 95.7067 0)
(540.59 289.981 0)
(524.286 -61.4143 1.83913e-17)
(571.521 155.914 -5.43535e-18)
(616.873 201.681 1.3221e-17)
(612.929 81.1463 1.4646e-17)
(650 3.06815e-05 4.4154e-17)
(649.576 -0.216719 0)
(650 3.70529e-09 2.03039e-17)
(649.999 0.000709292 -1.07962e-17)
(650 -0.000234509 -3.25895e-17)
(642.747 -1.15302 -1.5195e-17)
(649.7 -0.331974 -6.66248e-18)
(650 4.04016e-08 -3.84954e-17)
(650 -6.72857e-09 1.1061e-17)
(650 4.16198e-07 -1.52029e-17)
(650 -1.09151e-07 2.05096e-17)
(650 2.64042e-12 4.34645e-17)
(649.993 -0.0140419 -1.86437e-17)
(649.99 -0.000863798 2.42464e-17)
(650 -1.9662e-13 -3.59964e-17)
(650 3.26635e-11 -1.24453e-17)
(650 5.98506e-12 -1.13445e-17)
(650 -8.44286e-13 2.14975e-17)
(650 7.798e-13 0)
(650 -1.7649e-13 -3.79437e-18)
(650 -4.25363e-13 1.31926e-17)
(650 7.29727e-14 0)
(595.774 76.1763 -2.87363e-17)
(604.194 14.9011 0)
(581.175 -90.8963 0)
(537.345 -162.195 -4.31996e-17)
(506.896 -152.05 2.43038e-17)
(477.071 -133.036 -1.34079e-17)
(534.481 -123.885 2.24095e-17)
(576.96 -102.819 2.01778e-17)
(600.381 -51.9296 -2.05776e-17)
(571.442 -43.1409 -1.78112e-17)
(650 -6.53798e-07 -3.04303e-25)
(650 -1.71542e-07 -1.32822e-25)
(650 2.02764e-13 -2.26045e-17)
(650 1.50353e-13 0)
(650 2.20035e-14 2.38455e-17)
(650 -6.10795e-09 2.09842e-17)
(650 8.30662e-10 -3.27303e-19)
(650 -1.74133e-13 0)
(650 -2.83369e-06 2.07937e-17)
(650 -3.33408e-06 -1.98163e-17)
(404.083 258.206 0)
(384.774 217.583 0)
(536.646 288.05 0)
(650 -2.04564e-13 1.03021e-17)
(650 6.63382e-13 2.07691e-17)
(650 2.95974e-13 -2.08307e-17)
(650 1.98394e-13 3.51777e-19)
(650 3.76838e-13 7.21201e-19)
(639.357 -4.83154 2.80547e-18)
(650 -1.77338e-06 3.37099e-17)
(650 -1.1456e-12 -2.06684e-17)
(650 8.83916e-13 0)
(650 3.09376e-13 -2.17308e-17)
(650 -2.07432e-12 -9.23364e-31)
(650 -1.24576e-06 -2.96969e-17)
(650 3.46649e-12 -4.15425e-17)
(650 1.76557e-13 -1.70517e-17)
(650 -4.70777e-14 0)
(650 -9.74959e-14 -2.14779e-17)
(650 9.21842e-13 1.68829e-19)
(650 1.31417e-12 0)
(650 -3.66291e-15 2.06689e-17)
(650 1.77986e-13 0)
(650 1.17545e-13 -2.08471e-17)
(650 -6.52868e-14 -2.08906e-17)
(650 -8.15208e-13 -2.09456e-17)
(650 -2.72502e-12 0)
(650 4.95414e-13 2.08664e-17)
(650 3.07155e-12 0)
(650 9.78063e-13 -2.04451e-20)
(650 -2.02109e-11 2.08824e-17)
(650 -2.16845e-10 0)
(650 -2.55017e-09 -2.106e-17)
(650 -2.67019e-08 0)
(650 -2.03836e-07 -3.37983e-19)
(650 -1.6691e-06 -2.21871e-17)
(650 2.72073e-06 1.06428e-17)
(493.034 197.418 0)
(650 2.8157e-11 6.6616e-19)
(650 1.40975e-06 5.6537e-25)
(650 1.27281e-06 2.11359e-17)
(650 2.40162e-06 -1.11957e-17)
(650 -2.35237e-07 -2.37429e-17)
(650 2.41046e-06 0)
(650 -1.24009e-14 4.29332e-17)
(650 3.54114e-07 1.17525e-17)
(650 -1.98568e-12 2.16374e-17)
(650 -3.86203e-13 9.699e-18)
(650 -6.97338e-08 -8.19649e-20)
(650 4.82568e-13 -4.0714e-20)
(650 -8.05569e-13 0)
(650 1.87391e-12 -2.06922e-17)
(650 1.58201e-12 0)
(650 -2.50479e-12 2.0187e-20)
(650 -6.2004e-14 -2.07773e-17)
(650 6.87e-13 0)
(650 -2.30142e-12 2.07357e-17)
(650 -2.4567e-13 -2.07313e-17)
(650 2.21732e-12 2.07726e-17)
(650 -3.10446e-11 -2.0733e-17)
(650 6.18376e-07 0)
(650 0.000450166 -2.09423e-17)
(649.43 0.00754584 1.21454e-17)
(649.925 0.177181 2.31344e-17)
(648.933 -0.175504 -4.14387e-18)
(648.816 2.16736 1.27087e-17)
(634.429 8.75138 -2.20725e-17)
(591.309 87.408 1.7185e-17)
(621.909 168.336 2.2543e-17)
(567.437 232.838 -1.09262e-17)
(650 -1.83563e-11 0)
(650 -3.48221e-12 -2.08731e-17)
(624.415 64.9252 2.13901e-17)
(650 -1.65807e-13 -1.0564e-17)
(650 -6.69661e-14 -2.30986e-17)
(649.926 0.0439434 -1.05006e-17)
(650 1.33418e-07 0)
(650 6.45984e-13 -1.03242e-31)
(650 -8.29779e-14 2.20792e-17)
(650 -1.00347e-14 -2.27184e-17)
(650 1.23663e-14 0)
(650 -4.49464e-07 8.87486e-18)
(650 -7.45494e-13 0)
(650 1.66984e-06 -3.78826e-17)
(650 3.73616e-10 0)
(650 -1.24134e-13 -2.27681e-18)
(650 1.23282e-11 0)
(622.173 -53.4541 0)
(625.498 42.5189 2.29405e-17)
(588.644 -135.22 2.50871e-17)
(542.759 -148.867 -1.23267e-17)
(498.082 -157.698 4.248e-18)
(581.043 -56.1002 1.94868e-17)
(470.656 -80.1575 3.78776e-17)
(650 -2.04562e-06 2.10301e-25)
(595.976 118.952 -1.97243e-17)
(629.698 20.0375 3.32143e-17)
(647.386 2.30123 -6.96387e-18)
(650 -2.42541e-07 1.38643e-18)
(474.396 -111.791 0)
(650 -2.87194e-10 -1.85821e-17)
(650 -9.11366e-06 4.14642e-17)
(598.38 191.566 -5.65653e-18)
(605.038 57.4543 7.48813e-18)
(642.136 7.5677 1.78451e-17)
(649.21 1.37108 -1.13349e-17)
(649.16 0.489881 0)
(649.993 0.00499362 -1.94193e-17)
(650 8.8652e-05 0)
(650 3.26661e-08 5.04646e-21)
(650 -1.60749e-12 2.07497e-17)
(650 -6.95912e-13 0)
(650 4.05528e-13 4.04303e-20)
(650 -7.25276e-08 -2.19823e-17)
(650 8.43396e-13 -7.03523e-31)
(650 1.52799e-13 -2.0742e-17)