/*--------------------------------*- C++ -*----------------------------------*\
  =========                 |
  \\      /  F ield         | OpenFOAM: The Open Source CFD Toolbox
   \\    /   O peration     | Website:  https://openfoam.org
    \\  /    A nd           | Version:  6
     \\/     M anipulation  |
\*---------------------------------------------------------------------------*/
FoamFile
{
    version     2.0;
    format      ascii;
    class       surfaceScalarField;
    location    "0.0006";
    object      phi;
}
// * * * * * * * * * * * * * * * * * * * * * * * * * * * * * * * * * * * * * //

dimensions      [1 0 -1 0 0 0 0];

internalField   nonuniform List<scalar> 
5786
(
0.150621
-8.6875e-15
0.150621
-1.8735e-14
0.150621
-1.94844e-14
0.150621
-1.72085e-14
0.150621
-1.10745e-14
0.150621
-8.43769e-15
0.150621
-1.70697e-14
0.150621
-5.66769e-14
0.150621
-2.97429e-13
0.150621
-1.69592e-12
0.150621
-9.61783e-12
0.150621
-5.2151e-11
0.150621
-2.68829e-10
0.150621
-1.29358e-09
0.150621
-5.78378e-09
0.150621
-2.36024e-08
0.150621
-8.14807e-08
0.150621
-2.57651e-07
0.150621
-9.72204e-07
0.150621
-7.25528e-07
0.150621
-1.54231e-07
0.150621
-2.42413e-08
0.150621
-4.07449e-09
0.150621
-7.43277e-10
0.150621
-1.7689e-10
0.150621
-4.77751e-11
0.150621
-1.11265e-11
0.150621
-1.86542e-12
0.150621
-1.09884e-13
0.150621
3.01009e-13
0.150621
4.93522e-13
0.150621
8.86513e-13
0.150621
1.20629e-12
0.150621
1.55531e-12
0.150621
2.20854e-12
0.150621
3.92589e-12
0.150621
8.66626e-12
0.150621
2.07408e-11
0.150621
4.942e-11
0.150621
1.08851e-10
0.150621
2.30714e-10
0.150621
5.06121e-10
0.150621
1.09741e-09
0.150621
2.59564e-09
0.150621
4.79049e-09
0.150621
9.23504e-09
0.150621
1.53028e-08
0.150621
2.14973e-08
0.150621
3.19443e-08
3.63627e-08
0.150621
-3.69149e-15
0.150621
-1.83187e-14
0.150621
-2.1233e-14
0.150621
-1.81521e-14
0.150621
-1.41276e-14
0.150621
-1.385e-14
0.150621
-2.08167e-14
0.150621
-6.10345e-14
0.150621
-2.99205e-13
0.150621
-1.70641e-12
0.150621
-9.69269e-12
0.150621
-5.27877e-11
0.150621
-2.74378e-10
0.150621
-1.32614e-09
0.150621
-6.02646e-09
0.150621
-2.56281e-08
0.150621
-8.91258e-08
0.150621
-2.85234e-07
0.150621
-1.29541e-06
0.150621
-9.08903e-07
0.150621
-1.94181e-07
0.150621
-3.26425e-08
0.150621
-5.64135e-09
0.150621
-1.02354e-09
0.150621
-2.41175e-10
0.150621
-6.66727e-11
0.150621
-1.62131e-11
0.150621
-2.88869e-12
0.150621
-2.65982e-13
0.150621
3.09974e-13
0.150621
5.50449e-13
0.150621
1.0294e-12
0.150621
1.44054e-12
0.150621
1.84869e-12
0.150621
2.47583e-12
0.150621
4.1481e-12
0.150621
9.05104e-12
0.150621
2.19542e-11
0.150621
5.36845e-11
0.150621
1.17268e-10
0.150621
2.42962e-10
0.150621
5.32669e-10
0.150621
1.13922e-09
0.150621
2.81757e-09
0.150621
5.04988e-09
0.150621
9.59502e-09
0.150621
1.51297e-08
0.150621
2.04827e-08
0.150621
2.95812e-08
3.33953e-08
0.150621
-1.94289e-15
0.150621
-1.99563e-14
0.150621
-2.14828e-14
0.150621
-2.5091e-14
0.150621
-1.88738e-14
0.150621
-1.93456e-14
0.150621
-2.70617e-14
0.150621
-6.78624e-14
0.150621
-3.18107e-13
0.150621
-1.78396e-12
0.150621
-1.01077e-11
0.150621
-5.50887e-11
0.150621
-2.87859e-10
0.150621
-1.38692e-09
0.150621
-6.36455e-09
0.150621
-2.80924e-08
0.150621
-9.61465e-08
0.150621
-3.0134e-07
0.150621
-1.69878e-06
0.150621
-1.13773e-06
0.150621
-2.50705e-07
0.150621
-4.40998e-08
0.150621
-7.86531e-09
0.150621
-1.42177e-09
0.150621
-3.29962e-10
0.150621
-9.30871e-11
0.150621
-2.36781e-11
0.150621
-4.45155e-12
0.150621
-4.95853e-13
0.150621
3.07671e-13
0.150621
5.94219e-13
0.150621
1.15571e-12
0.150621
1.67477e-12
0.150621
2.19219e-12
0.150621
2.77545e-12
0.150621
4.35219e-12
0.150621
9.41591e-12
0.150621
2.30025e-11
0.150621
5.78255e-11
0.150621
1.25729e-10
0.150621
2.55025e-10
0.150621
5.58298e-10
0.150621
1.18319e-09
0.150621
3.02334e-09
0.150621
5.30622e-09
0.150621
9.95315e-09
0.150621
1.50104e-08
0.150621
1.96552e-08
0.150621
2.70194e-08
3.05826e-08
0.150621
-5.07927e-15
0.150621
-1.91236e-14
0.150621
-2.01783e-14
0.150621
-2.32869e-14
0.150621
-2.46192e-14
0.150621
-1.92901e-14
0.150621
-3.09752e-14
0.150621
-7.63556e-14
0.150621
-3.5616e-13
0.150621
-1.94322e-12
0.150621
-1.08971e-11
0.150621
-5.89893e-11
0.150621
-3.08128e-10
0.150621
-1.46293e-09
0.150621
-6.72428e-09
0.150621
-3.05494e-08
0.150621
-1.01029e-07
0.150621
-3.02209e-07
0.150621
-2.18624e-06
0.150621
-1.43224e-06
0.150621
-3.14508e-07
0.150621
-5.94802e-08
0.150621
-1.09966e-08
0.150621
-1.98763e-09
0.150621
-4.51697e-10
0.150621
-1.29403e-10
0.150621
-3.45225e-11
0.150621
-6.85027e-12
0.150621
-8.49709e-13
0.150621
2.89463e-13
0.150621
6.44068e-13
0.150621
1.27437e-12
0.150621
1.91713e-12
0.150621
2.57197e-12
0.150621
3.13619e-12
0.150621
4.53737e-12
0.150621
9.75708e-12
0.150621
2.39382e-11
0.150621
6.18643e-11
0.150621
1.34454e-10
0.150621
2.669e-10
0.150621
5.82658e-10
0.150621
1.2317e-09
0.150621
3.20919e-09
0.150621
5.57326e-09
0.150621
1.03224e-08
0.150621
1.48528e-08
0.150621
1.9058e-08
0.150621
2.41499e-08
2.79352e-08
0.150621
-7.52307e-15
0.150621
-2.09091e-14
0.150621
-2.69224e-14
0.150621
-2.90463e-14
0.150621
-2.22773e-14
0.150621
-1.85962e-14
0.150621
-2.9484e-14
0.150621
-3.97968e-14
0.150621
-1.48457e-13
0.150621
-8.03363e-13
0.150621
-4.80335e-12
0.150621
-2.80565e-11
0.150621
-1.66568e-10
0.150621
-8.70181e-10
0.150621
-4.95191e-09
0.150621
-2.94377e-08
0.150621
-7.30377e-08
0.150621
-1.77582e-07
0.150621
-2.98788e-06
0.150621
-1.6336e-06
0.150621
-4.29224e-07
0.150621
-8.22404e-08
0.150621
-1.54212e-08
0.150621
-2.80164e-09
0.150621
-6.18248e-10
0.150621
-1.78067e-10
0.150621
-4.97907e-11
0.150621
-1.04615e-11
0.150621
-1.41133e-12
0.150621
2.52385e-13
0.150621
6.86217e-13
0.150621
1.38718e-12
0.150621
2.16567e-12
0.150621
2.97727e-12
0.150621
3.51451e-12
0.150621
4.4064e-12
0.150621
9.9033e-12
0.150621
2.39928e-11
0.150621
6.65475e-11
0.150621
1.43269e-10
0.150621
2.65716e-10
0.150621
5.90703e-10
0.150621
1.23392e-09
0.150621
3.42965e-09
0.150621
5.87405e-09
0.150621
1.06663e-08
0.150621
1.46077e-08
0.150621
1.86295e-08
0.150621
2.14896e-08
2.54441e-08
-0.00187412
0.00165717
0.000895891
-0.043981
0.0451693
-0.0263857
0.00557545
-0.0328241
0.00254569
-0.0632699
-0.0105823
-0.138039
0.043599
-0.354842
0.148046
-0.47409
0.1794
-0.460911
0.0490517
-0.454011
-0.0378629
-0.455502
-0.0118567
-0.276031
-0.198414
-0.0781952
-0.223076
0.0340783
-0.15207
-0.0716973
0.0603776
-0.00432006
0.014402
0.00239791
-0.0516367
0.0856719
-0.0423966
0.0299972
-0.061172
0.0105244
-0.132246
-0.00953094
-0.179357
0.127655
-0.317271
0.226001
-0.381277
0.308271
-0.375107
0.0482527
-0.551465
0.140569
-0.48182
-0.093501
-0.183108
-0.514905
0.369756
-0.800383
0.0124565
0.185913
-0.0614065
-0.0437363
-0.00588837
0.0170802
0.00125896
-0.077029
0.134139
-0.0446842
0.0487952
-0.0351531
-0.00820775
-0.172346
0.055252
-0.235247
0.215153
-0.307151
0.288352
-0.317363
0.351784
-0.440727
0.175258
-0.452976
0.141187
-0.399165
-0.162729
-0.250959
-0.673699
-0.0906092
-0.968157
0.00815537
0.0717838
-0.066161
-0.0310119
-0.0456939
0.0431112
0.00132979
-0.0711409
0.118237
-0.044199
0.0960926
-0.0417038
-0.00723411
-0.186695
0.134082
-0.282376
0.309046
-0.345614
0.38816
-0.301086
0.317406
-0.322462
0.200904
-0.330831
0.140209
-0.292546
-0.218145
-0.269825
-0.703086
-0.0725956
-1.16457
0.0191423
-0.0405912
-0.0464642
-0.034481
-0.0695299
0.0028404
0.12204
-0.087487
0.145265
-0.0845675
0.148459
-0.0946221
0.00820864
-0.198277
0.142261
-0.264982
0.397756
-0.35728
0.509758
-0.293284
0.257762
-0.267042
0.174789
-0.280027
0.136388
-0.27151
-0.243485
-0.325896
-0.653764
-0.104956
-1.38375
0.0585283
-0.215499
-0.0339621
0.0318232
-0.0705732
0.0733703
0.0106585
-0.0928061
0.457564
-0.46399
0.562924
-0.119604
0.367116
0.186975
0.279629
0.0686009
0.242148
-0.0299906
0.276398
0.00824706
0.303809
0.147618
0.0838139
0.140007
0.0881657
0.022346
0.0193154
-0.00309229
0.00542555
0.0110697
-0.0249424
0.0133247
-0.0157538
-0.0608436
0.0317296
0.00741833
-0.169937
0.29189
-0.76537
0.540887
-0.393091
0.631839
0.0841991
0.321725
0.367502
0.277907
0.000141038
0.30541
-0.00137834
0.195562
0.421909
0.0640517
0.17689
0.0491976
0.0713032
0.0196501
0.00176588
0.00847566
0.0207137
-0.00915875
0.0234552
-0.016395
-0.0601026
0.011521
0.0220905
-0.263149
0.230893
-0.982231
0.402216
-0.586667
0.506081
-0.0279037
0.584957
0.284269
0.311776
0.265935
0.251796
0.0891275
0.19614
0.559529
0.108754
0.235805
0.0414924
0.144419
0.00685114
0.00588331
0.0107256
0.030924
-0.0104352
0.04798
-0.0209592
-0.0672833
0.00276206
0.0278863
-0.370274
0.230768
-1.18501
0.320203
-0.689564
0.361982
-0.0796818
0.357491
0.287521
0.318948
0.307719
0.258507
0.208532
0.281678
0.507648
0.187443
0.311455
0.0572382
0.32737
0.0103284
0.03765
0.0145846
0.0405403
-0.0146188
0.0782676
-0.0363978
-0.0873909
0.0260852
0.0266953
-0.494889
0.272112
-1.42913
0.30336
-0.729885
0.331138
-0.119867
0.292274
0.330825
0.290418
0.330356
0.252976
0.317379
0.273894
0.455009
0.201906
0.388464
0.073706
0.480399
0.0384103
0.0682156
0.0154751
0.0908829
-0.0243897
0.0863417
-0.0494042
-0.150621
6.61956e-08
-0.150621
5.66025e-08
-0.150621
5.35926e-08
-0.150621
3.35325e-08
-0.150621
1.81187e-08
-0.150621
8.45014e-09
-0.150621
4.39735e-09
-0.150621
1.99302e-09
-0.150621
8.45332e-10
-0.150621
3.57529e-10
-0.150621
1.56512e-10
-0.150621
6.63955e-11
-0.150621
2.76816e-11
-0.150621
1.11204e-11
-0.150621
4.96289e-12
-0.150621
2.32658e-12
-0.150621
1.12299e-12
-0.150621
6.71213e-13
-0.150621
4.35235e-13
-0.150621
1.17711e-13
-0.150621
-3.73573e-12
-0.150621
-3.06841e-11
-0.150621
-1.18599e-10
-0.150621
-3.21663e-10
-0.150621
-6.34146e-10
-0.150621
-1.13559e-09
-0.150621
-3.49127e-09
-0.150621
-7.36894e-09
-0.150621
-7.76269e-09
-0.150621
6.5153e-09
-0.150621
1.08159e-07
-0.150621
3.13787e-07
-0.150621
3.83349e-07
-0.150621
1.17653e-07
-0.150621
2.76737e-08
-0.150621
5.98956e-09
-0.150621
1.08443e-09
-0.150621
1.41279e-10
-0.150621
-1.03454e-11
-0.150621
-1.53885e-11
-0.150621
-5.09071e-12
-0.150621
-1.45481e-12
-0.150621
-3.73507e-13
-0.150621
-8.31002e-14
-0.150621
-1.46272e-14
-0.150621
-2.60902e-15
-0.150621
-6.80012e-15
-0.150621
-1.04916e-14
-0.150621
-1.21847e-14
-5.96745e-15
-0.150621
6.17217e-08
-0.150621
5.27236e-08
-0.150621
5.18052e-08
-0.150621
3.30766e-08
-0.150621
1.89913e-08
-0.150621
8.68349e-09
-0.150621
4.74333e-09
-0.150621
2.14918e-09
-0.150621
8.86537e-10
-0.150621
3.738e-10
-0.150621
1.67622e-10
-0.150621
7.11186e-11
-0.150621
2.97273e-11
-0.150621
1.16561e-11
-0.150621
5.38994e-12
-0.150621
2.58277e-12
-0.150621
1.23404e-12
-0.150621
7.59948e-13
-0.150621
4.90469e-13
-0.150621
3.26683e-14
-0.150621
-6.80755e-12
-0.150621
-4.65868e-11
-0.150621
-1.67453e-10
-0.150621
-4.21912e-10
-0.150621
-7.77578e-10
-0.150621
-1.37038e-09
-0.150621
-4.24091e-09
-0.150621
-7.69228e-09
-0.150621
-7.53565e-09
-0.150621
1.44991e-08
-0.150621
1.46101e-07
-0.150621
4.21716e-07
-0.150621
5.33832e-07
-0.150621
1.56733e-07
-0.150621
3.35358e-08
-0.150621
7.01261e-09
-0.150621
1.2263e-09
-0.150621
1.59316e-10
-0.150621
-5.97239e-12
-0.150621
-1.57142e-11
-0.150621
-5.214e-12
-0.150621
-1.46047e-12
-0.150621
-3.72591e-13
-0.150621
-8.64864e-14
-0.150621
-1.50713e-14
-0.150621
-7.85483e-15
-0.150621
-5.4956e-15
-0.150621
-1.14908e-14
-0.150621
-1.30729e-14
-1.08802e-14
-0.150621
5.77326e-08
-0.150621
4.90398e-08
-0.150621
4.98731e-08
-0.150621
3.26276e-08
-0.150621
1.98622e-08
-0.150621
9.03019e-09
-0.150621
5.07577e-09
-0.150621
2.30781e-09
-0.150621
9.22964e-10
-0.150621
3.91612e-10
-0.150621
1.80514e-10
-0.150621
7.60408e-11
-0.150621
3.16634e-11
-0.150621
1.21692e-11
-0.150621
5.86775e-12
-0.150621
2.85e-12
-0.150621
1.34373e-12
-0.150621
8.38635e-13
-0.150621
5.41345e-13
-0.150621
-1.27842e-13
-0.150621
-1.1867e-11
-0.150621
-6.94449e-11
-0.150621
-2.33458e-10
-0.150621
-5.44416e-10
-0.150621
-9.4104e-10
-0.150621
-1.64099e-09
-0.150621
-4.98845e-09
-0.150621
-8.08819e-09
-0.150621
-6.37502e-09
-0.150621
2.63411e-08
-0.150621
1.95972e-07
-0.150621
5.37256e-07
-0.150621
7.0168e-07
-0.150621
2.01837e-07
-0.150621
3.95517e-08
-0.150621
8.07039e-09
-0.150621
1.37447e-09
-0.150621
1.84261e-10
-0.150621
3.49665e-13
-0.150621
-1.55329e-11
-0.150621
-5.38342e-12
-0.150621
-1.48129e-12
-0.150621
-3.75699e-13
-0.150621
-9.12603e-14
-0.150621
-1.7375e-14
-0.150621
-6.91114e-15
-0.150621
-1.13243e-14
-0.150621
-1.49047e-14
-0.150621
-1.57652e-14
-7.66054e-15
-0.150621
5.39767e-08
-0.150621
4.57058e-08
-0.150621
4.77146e-08
-0.150621
3.23805e-08
-0.150621
2.07487e-08
-0.150621
9.50488e-09
-0.150621
5.40178e-09
-0.150621
2.46476e-09
-0.150621
9.54274e-10
-0.150621
4.13137e-10
-0.150621
1.9611e-10
-0.150621
8.14434e-11
-0.150621
3.34577e-11
-0.150621
1.27545e-11
-0.150621
6.42594e-12
-0.150621
3.13316e-12
-0.150621
1.46799e-12
-0.150621
9.12631e-13
-0.150621
5.97022e-13
-0.150621
-3.59462e-13
-0.150621
-2.05494e-11
-0.150621
-1.02399e-10
-0.150621
-3.22125e-10
-0.150621
-6.90116e-10
-0.150621
-1.1244e-09
-0.150621
-1.97304e-09
-0.150621
-5.7494e-09
-0.150621
-8.45376e-09
-0.150621
-3.84402e-09
-0.150621
4.35613e-08
-0.150621
2.625e-07
-0.150621
6.64135e-07
-0.150621
8.9213e-07
-0.150621
2.55664e-07
-0.150621
4.58878e-08
-0.150621
9.18877e-09
-0.150621
1.53071e-09
-0.150621
2.15722e-10
-0.150621
8.34494e-12
-0.150621
-1.46972e-11
-0.150621
-5.63632e-12
-0.150621
-1.5169e-12
-0.150621
-3.7903e-13
-0.150621
-9.03166e-14
-0.150621
-1.99563e-14
-0.150621
-8.6875e-15
-0.150621
-1.19071e-14
-0.150621
-1.2379e-14
-0.150621
-1.27121e-14
-8.71525e-15
-0.150621
5.05452e-08
-0.150621
4.25203e-08
-0.150621
4.47511e-08
-0.150621
3.27429e-08
-0.150621
2.16522e-08
-0.150621
1.01183e-08
-0.150621
5.74043e-09
-0.150621
2.6927e-09
-0.150621
9.20016e-10
-0.150621
4.17552e-10
-0.150621
2.16595e-10
-0.150621
8.46202e-11
-0.150621
3.31423e-11
-0.150621
1.20494e-11
-0.150621
7.03773e-12
-0.150621
3.38755e-12
-0.150621
1.53208e-12
-0.150621
9.63299e-13
-0.150621
6.49685e-13
-0.150621
-9.11111e-13
-0.150621
-3.80887e-11
-0.150621
-1.60583e-10
-0.150621
-4.50426e-10
-0.150621
-8.66102e-10
-0.150621
-1.32259e-09
-0.150621
-2.28416e-09
-0.150621
-5.94381e-09
-0.150621
-9.00954e-09
-0.150621
2.69881e-10
-0.150621
7.00289e-08
-0.150621
3.43201e-07
-0.150621
7.85655e-07
-0.150621
1.15594e-06
-0.150621
3.22334e-07
-0.150621
4.16775e-08
-0.150621
6.6929e-09
-0.150621
7.25829e-10
-0.150621
5.01766e-11
-0.150621
-2.2065e-11
-0.150621
-1.86762e-11
-0.150621
-5.5506e-12
-0.150621
-1.22647e-12
-0.150621
-2.62347e-13
-0.150621
-5.47297e-14
-0.150621
-8.13421e-15
-0.150621
-8.11365e-15
-0.150621
-1.32119e-14
-0.150621
-1.5498e-14
-0.150621
-1.68094e-14
-1.05923e-14
7.45574
-5.31346e-15
2.5894
4.86634
4.06428
3.39146
4.04997
3.40577
3.91886
3.53688
7.45574
-6.35726
6.35726
6.39537
-6.39537
-6.50148
6.50148
-6.58921
6.58921
6.53891
-6.53891
6.51654
-6.51654
6.50645
-6.50645
6.5301
-6.5301
6.67249
-6.67241
6.74254
-6.74265
6.73524
-6.73524
6.7262
-6.7262
6.71679
-6.71679
6.71046
-6.71046
6.70926
-6.70926
6.71197
-6.71197
6.71943
-6.71943
6.72515
-6.72515
6.71754
-6.71754
6.70519
-6.70519
6.69427
-6.69427
6.63561
-6.63561
6.4654
-6.4654
6.61362
-6.61362
-7.45574
-2.522
-4.93374
-4.08574
-3.36999
-3.96449
-3.49124
-4.1353
-3.32044
-7.45574
-1.68963e-07
6.66983
-6.66983
-9.77603e-08
6.79068
-6.79068
-1.06559e-08
-6.64684
6.64684
-3.43541e-10
-6.69619
6.69619
-2.33958e-11
-6.70641
6.70645
3.29839e-05
-101.34
7.75675
-3.05691
-36.4054
53.4994
0.569933
-6.54798
6.24328
-3.21264
-194.95
260.749
0.278075
-32.515
37.4832
0.997821
-5.7674
6.99593
0.295788
-80.9008
4.40513
-1.42364
-11.6812
4.7534
0.00445477
-7.95945
7.62192
-1.07904
-8.17304
8.3544
-0.0394496
-8.99049
9.70185
-0.000531212
-6.92983
4.28158
-0.485192
-3.35222
3.80569
0.315163
-0.21479
0.114176
0.521719
-0.385077
1.87149
-0.921684
-0.0779796
-0.027422
-0.992287
-0.817617
0.0832105
0.938777
-0.195796
0.399238
0.0410025
-0.162853
0.331151
-0.36513
2.06493
1.26646
-3.33244
0.709614
-0.469951
-0.615998
0.681248
1.19539
-1.11022
1.78884
-1.25874
2.00853
-1.55941
2.26709
-1.84406
3.1001
-2.89621
3.17329
-3.10054
1.96793
-2.22155
1.40584
-2.03246
1.29285
-2.69461
-0.00956538
-0.236823
0.0205144
0.0154178
-0.039827
-0.016962
-0.00126483
-1.44664
1.448
-0.000369915
-1.81253
1.81253
7.33118e-07
2.28517
-2.28517
-3.30141e-09
2.80432
-2.80432
-5.99325e-10
-3.55054
3.55054
-1.43285e-11
-4.50692
4.50692
-1.6967e-13
-5.72963
5.72963
-9.71662e-14
-6.53303
6.53303
2.59262e-14
1.09848
-9.97773
-0.785903
-0.0224543
-4.11511
6.70451
3.34062
7.4049
4.06631
3.38942
7.45777
7.43939
3.40908
4.04666
3.07862
4.37712
6.64291
-6.64291
6.38768
-6.38768
6.57634
-6.57634
-6.56587
6.56587
-6.52339
6.52339
-6.5139
6.5139
-6.50329
6.50329
-6.59555
6.59555
-6.72309
6.72307
-6.74564
6.74562
-6.73434
6.73434
-6.72221
6.72221
-6.71845
6.71845
-6.71287
6.71287
-6.71174
6.71174
-6.72131
6.72131
-6.72169
6.72169
-6.71732
6.71732
-6.71265
6.71265
-6.70677
6.70677
-6.67597
6.67597
-6.55698
6.55698
-6.4767
6.4767
-0.0128781
-6.19075
6.19075
-4.46275
-2.99299
-3.51308
-3.94265
-3.45344
-4.0023
-0.113794
-2.50716
-4.94858
-7.02461
0.35478
-7.02461
-4.61546e-08
-0.0439509
-0.233937
6.66492
-6.66492
-1.90383e-09
6.67748
-6.67748
-6.89912e-11
6.70697
-6.70697
7.96959e-09
6.70979
-6.71908
-0.0154226
162.951
-85.0876
0.273897
24.2263
-8.92511
0.50708
7.86858
-6.55453
-2.86292
90.128
-53.0451
1.88094
17.1884
-12.7923
0.831222
5.60867
-3.74999
0.0756482
51.4389
-3.59158
0.0563426
7.48549
-6.93978
0.0708867
12.0412
-15.9388
-0.0281808
6.5105
-10.3693
-0.140021
6.11848
-4.80732
-0.0201688
3.59814
-3.74348
-0.412717
0.336938
-0.692332
0.98611
0.377706
-0.566005
-0.0684223
1.18868
0.576587
-2.44976
0.124297
-1.04998
0.344888
-0.0763577
-0.817321
1.07507
0.284686
0.482679
0.275591
0.637981
0.225621
0.784978
0.760288
0.828003
1.38752
0.278095
-1.16033
-0.807178
-0.710945
-3.01461
1.28392
-1.2742
0.00480701
1.62583
-1.62587
-2.75981e-06
-2.03818
2.03818
5.38427e-08
0.246989
-2.59944
2.59944
-2.36557e-09
0.204882
3.07029
-3.07029
-9.95033e-11
3.99718
-3.99718
-4.17113e-13
5.08862
-5.08862
-8.54582e-14
6.40825
-6.40825
6.21424e-15
0.922704
7.32793
7.45242
6.6155
0.00768167
-0.0748586
0.0233462
0.015514
0.00263586
0.00316298
-0.0654409
-0.0504467
-0.00312632
0.00089351
0.00399124
-0.00165684
-0.00240994
-0.00248525
-0.0093385
-0.00225931
0.00783229
0.00489518
-0.00158152
0.0183004
0.0786241
-0.0112966
0.422868
-7.59883
-7.41793
-6.64246
-0.125761
0.0306363
0.0107845
0.00308104
0.150961
5.01175
0.0410014
1.01785
0.313733
-1.77429
-0.140049
-0.32076
-1.47993
-0.713906
-0.226854
-1.13931
-1.75404
0.406399
0.888317
-0.170794
-0.662495
-0.602787
2.66342
1.2548
0.179108
0.22565
0.314271
0.265966
0.446636
0.581706
0.678623
0.00685325
0.00745572
-0.0268109
-0.0768466
-0.019619
0.0103667
0.00813173
0.00542231
0.00798291
0.0036149
-0.000225931
0.00188276
-0.00346428
-0.000225931
0.00745574
0.0125015
0.0403664
0.0915775
-0.136914
-7.83274
-7.4339
-7.32274
0.000266421
3.97342
1.09103
-0.0515542
1.34357
-0.169421
-4.93745
-0.319473
-0.686433
-1.98009
-0.0973597
-0.645112
-1.49667
0.143262
1.74182
0.184771
-0.48126
-0.43322
0.247546
0.0269611
-0.285653
-7.92673
-0.000519618
0.0187071
-0.0180745
0.124782
0.641005
0.509739
0.186676
0.173275
0.480255
3.70844
3.69646
4.53098
2.08452
5.4756
3.86599
3.58644
6.22449
-6.2168
-4.16595
-3.76078
-3.78699
-6.53401
6.56097
6.56647
-6.64133
6.552
-6.67776
6.60141
-6.57807
0.0674029
-4.24374
-3.35508
-6.51609
6.51872
6.49267
-6.48951
6.50192
-6.56721
-6.75685
6.70714
6.74773
-6.75072
6.73212
-6.7313
-6.72124
6.72522
6.7195
-6.72116
6.71114
-6.71355
6.71528
-6.71777
6.71604
-6.72538
6.72869
-6.73095
-6.72937
6.7372
-6.71604
6.72093
6.70783
-6.70941
6.71543
-6.69713
-6.60684
6.68546
-6.35379
6.3425
-4.34112
-3.49162
-8.50707
-7.73536
-6.63335
6.62047
-0.0668757
0.0423998
6.71787
-6.71839
-5.73448
-3.73035
-3.68758
-2.14484
-4.49762
6.71177
-6.71507
-6.52038
6.40659
-0.295895
-0.234743
-2.47796
2.38884
-7.6355
7.76028
-6.70861
6.7194
0.00926319
-6.7145
6.71749
-0.00286082
-6.70471
6.72342
0.0146855
-5.79571
6.88779
11.7419
-9.32567
-10.012
11.0382
-10.2513
10.0061
-12.148
10.6284
-10.8649
11.3615
-4.06087
5.96328
-14.951
1.87507
-3.13804
2.33612
-5.17625
5.74686
8.38887
-10.3509
-7.85381
7.81786
4.71014
-4.85762
6.20538
-4.36338
-2.34916
2.1275
1.4678
-1.52826
-0.875155
0.293242
0.155487
6.40342
-6.15588
0.186619
1.16979
-1.0003
-0.617759
0.867042
-1.24017
0.971777
-0.640452
0.384425
0.58716
2.49324
-2.24626
1.73978
-1.56064
3.75158
-3.27132
-2.0109
2.23655
0.482348
-1.34575
1.51748
0.394025
-3.09661
3.36257
0.654968
-2.84701
3.0519
0.51556
5.30295
-4.72124
-1.78659
1.97327
0.449952
6.65397
-5.97535
-4.20914
4.71888
1.09381
6.51985
-6.513
0.00376552
-5.26834
5.90934
1.38564
5.78904
2.04977
-1.42229
-2.48546
3.19575
3.7194
-2.80346
3.38982
-1.91837
1.72702
-1.47518
0.346084
-1.46109
-1.17956
0.462564
0.220698
-3.30814
-1.01385
-0.957509
-6.90077
6.66683
-0.348763
3.60037
3.72757
7.46636
8.25855
-6.6698
6.70043
0.0536211
7.56012
-7.54777
-7.87932
0.703175
-0.575509
0.284235
0.365288
-1.84646
6.73081
0.00121801
6.7389
3.68735
3.75204
7.27379
0.293674
-7.52454
6.74138
0.00485146
6.75014
6.51044
0.0505333
6.52595
-0.857711
-0.000903723
1.1881
7.27446
-6.50795
6.51541
-6.49352
6.46675
-6.68179
6.60402
6.75022
-6.7631
0.0186163
0.0176326
-6.72681
6.73223
-6.71905
6.72703
-6.71408
6.71769
-6.71122
6.71099
-6.72809
6.72997
6.72289
-6.72635
6.71913
-6.71935
-6.71476
6.72221
-6.71024
6.72274
6.70956
-6.66919
6.57543
-6.48386
6.37345
-6.51036
-7.1249
-0.509704
-0.178864
3.67139
-7.40174
-3.65135
-3.9669
-3.46699
-8.14897
-7.32199
0.0107695
-7.15457
-0.00081554
1.78493
6.59025
-6.60833
-7.09239
0.00690473
-5.57535
6.71284
-6.72077
0.0341371
-0.00418111
11.7841
-15.0859
10.6997
-9.39039
12.7613
-10.257
12.5635
-12.5443
4.88642
-6.81741
2.65939
-2.72019
15.0868
-12.5305
3.95163
-9.38853
4.9368
-1.64071
3.61101
2.99462
-3.21305
-5.20674
3.66887
-5.2787
5.12549
-2.81074
3.83231
-0.760461
0.799714
-1.06152
0.00308773
-0.0064767
0.909999
4.85805
1.11859
0.412544
-0.0875108
0.0129534
3.8934
3.56437
7.60184
7.31641
2.52515
0.526752
-0.0015992
2.83942
-3.74248
4.18911
8.55452
0.9764
1.23035
1.62898
0.706042
-0.140425
-1.11283
1.45739
-1.00735
0.652105
-0.751448
-0.784434
0.804877
-0.755622
0.221639
-0.801975
0.917794
0.59316
-0.8423
-0.181739
0.213774
-0.697814
-1.08258
-1.25131
-0.255318
-0.120003
0.0812189
0.346861
0.328601
0.102723
0.221574
0.297389
0.0758173
-0.167867
0.201606
0.0462406
-0.00240994
0.00617546
0.0178486
0.00233462
-0.0120497
0.00406676
-0.00293727
0.000451053
-0.000979036
0.0256056
-0.0143843
0.0128028
-7.53313e-05
0.00119951
-0.155205
-0.100311
0.0259081
-0.0582372
0.0134801
0.011069
-1.48309
-0.229866
-0.661022
0.0150952
0.230382
0.0447329
0.0921047
-0.00389769
0.20608
0.408082
-2.02352
-0.505493
6.73004
-6.74105
6.78608
-6.73245
-6.75027
6.7669
-6.7381
6.75158
-6.50729
6.51806
-6.88099
6.7813
-5.56318
7.34812
2.99133
-4.22492
-3.17682
-6.47393
6.37564
6.69781
-6.85557
-0.148721
-6.77183
6.79205
-6.49312
6.54365
3.0122
-2.41904
5.68324
-4.86509
-6.75362
6.75264
-6.74958
6.76062
6.75746
-6.75701
0.0193466
-6.73261
6.74541
-6.73554
6.73961
-6.7384
6.76401
6.75068
-6.76273
-0.00293711
-0.965445
1.85754
6.75475
-6.76122
6.74684
-6.74691
0.0112964
6.75189
-6.74571
0.0192795
6.73908
-6.75347
-0.0236475
6.74232
-6.74473
0.00391614
6.45837
-6.12266
0.730911
-1.54532
-6.58733
6.78894
2.02479
-2.41894
-6.0814
5.91353
-3.21244
-4.10954
1.04454
-0.604833
6.43802
-6.43873
-0.0352875
-2.00145
-6.14752
-6.22637
-7.00523
6.78342
-6.78681
0.0149932
6.78566
-6.74815
0.0194925
-6.744
6.73902
-0.0142319
-3.89061
-3.26396
-7.10306
-6.44078
6.60428
-6.53687
0.111158
-6.48045
6.54594
1.26728e-05
-6.74887
6.74601
-0.00986564
-6.70528
6.73178
7.6798
-5.53146
-6.75335
6.77802
-6.35057
6.70251
0.0249744
-6.67605
6.76815
0.110029
6.80167
-6.69894
0.214334
-6.03155
5.9405
11.3338
-7.86335
-10.5565
9.03656
-5.02122
3.27152
-4.77319
3.47945
-7.14038
5.12212
-0.233372
0.76988
-1.29452
-3.56778
3.84165
-0.879425
6.58176
-6.36012
0.500363
2.49026
-4.77054
4.25763
-6.11373
-2.33237
2.71052
6.74993
-6.74684
0.00421739
-5.70198
5.8886
-6.75158
6.75068
-0.00557297
-4.92463
6.11273
0.538864
6.75181
-6.75363
0.00206131
-5.41776
6.53635
2.84079
0.834365
1.80352
-1.40939
3.8207
-3.16574
1.47587
-0.274801
-3.06316
3.57872
0.757548
-2.77802
3.30477
0.800701
-6.48762
6.40011
0.280532
6.53899
-6.53522
0.0317093
6.70866
-5.32302
1.78403
2.0251
1.44627
-1.14695
0.493079
0.654814
4.93073
-3.95433
-0.499613
1.24909
1.9383
-0.276631
0.449089
-1.46557
4.31324
-3.39545
1.14751
1.53528
-11.2377
6.48838
-2.29814
6.46623
-6.815
-0.538997
-0.414885
-6.66385
5.9124
-0.750318
-2.59467
0.584147
-1.68588
0.930541
-1.09983
0.401248
-0.506396
5.55791
-4.4641
1.60359
1.64862
2.06216
-1.61221
2.3889
-1.90655
6.505
-6.68329
-0.345833
2.02884
-2.5525
-1.07796
-1.11908
-6.74835
6.75761
0.00233462
-0.953308
0.526141
-0.258758
3.58621
3.68758
-0.967039
0.428818
-0.0138572
4.47736
3.12448
-1.10241
6.75678
-0.00203338
6.77463
3.21531
4.25105
6.80151
7.09184
0.00955278
-6.49879
6.52473
0.0192983
0.00355688
-0.299478
0.000677794
-6.77108
6.7716
6.74624
-6.74917
-1.54355
1.54955
0.512612
-0.0194277
1.1304
-6.7668
6.76913
-0.000678421
-6.725
6.77124
-1.80531
-0.769626
6.69103
-6.75791
0.012785
0.0861448
0.00980799
6.47587
0.0677796
6.48883
-6.7379
0.0118158
-6.71679
6.73624
-6.73797
6.77719
-6.7625
0.00240771
0.0193364
-0.0069875
-6.17458
-0.0440107
-9.88947
6.01583
-6.05246
-0.00167246
-0.0360968
8.56129
-8.87638
9.72518
-6.22921
-3.78009
3.79273
-0.39913
-0.606232
0.0447344
-2.18547
4.06946
-0.910584
5.04401
0.0277896
-1.43005
0.950769
6.50389
-0.615287
6.20799
-0.673409
-0.921395
1.51542
0.963602
-6.61279
6.65519
0.0782476
0.118313
1.09381
-0.693063
0.641119
0.807226
1.31308
1.96205
0.552633
0.9901
-0.0141584
0.256284
-1.27509
-1.21592
-0.781092
0.776689
6.55969
-6.79444
-0.198217
-4.71444
-3.02093
-7.30911
-7.13047
-1.1046
-0.0085555
0.128277
-0.014876
-1.54135
0.0390108
0.0402998
0.0079076
0.0722981
-0.00489518
-0.046391
-0.0164379
-0.167262
0.0499882
0.0183729
-1.81248
0.845757
6.81748
-6.82238
-6.78721
6.82622
-6.81432
6.82223
-6.78408
6.79534
-6.81424
6.81131
14.7849
-12.8759
-6.94608
6.76368
6.67885
-6.68027
7.46869
2.31725
-1.54056
-6.83331
6.86572
-6.49602
6.51542
-7.49738
1.27101
-8.03638
-6.79839
6.81765
6.7796
-6.79615
6.84018
-6.65992
0.0247571
-6.50865
6.1825
-6.63726
6.72443
0.0303144
5.99363
-9.63142
-1.79876
2.31137
0.518491
6.92349
-6.98652
0.0458968
6.80081
-6.8017
0.0165623
-6.78472
6.804
6.7851
-6.80874
-0.0291451
6.80061
-6.79669
0.0134053
-2.15971
0.977672
-6.55804
6.98685
-6.54543
3.39453
7.19289
-7.97877
-6.42324
6.37686
3.20608
-4.80508
-6.78238
6.77538
-0.0027863
6.82661
-6.83417
-0.00696754
6.79391
-6.79323
-0.00278649
6.62623
-6.61801
0.0164305
-6.80272
6.78849
-0.0273377
7.10947
-7.26331
6.90565
-19.2369
-1.2018
2.19708
-6.8037
6.79383
-0.0152127
4.59685
-4.96012
-1.47286
-1.62899
6.80001
-6.79792
-0.00195438
6.80138
-6.79812
0.00276293
6.7857
-6.79956
-0.0230461
0.749647
-1.39667
-17.5996
21.854
0.119001
6.47181
-6.40403
0.0485803
6.91516
-6.80513
6.97044
-6.7561
0.4124
3.47996
-4.82877
2.45293
-2.91094
-5.71153
3.73115
-0.230666
10.5989
-7.37103
-6.80182
6.82961
-11.6335
9.86449
-0.0948875
2.23898
-1.04029
-3.47201
7.29295
0.0253448
-6.80212
6.84685
0.0153633
4.04711
3.2693
7.17159
6.95688
6.8178
-6.87363
0.0150959
3.79136
-2.99065
-6.70941
6.98994
0.205748
6.49256
-6.46083
-0.00340622
-6.77698
6.78969
0.0102934
6.81409
-6.81612
0.0122756
2.20959
-1.21341
6.64486
-7.00487
-0.297187
6.8031
-6.81725
-0.0112213
-6.80792
6.80234
-0.0140831
6.79918
-6.79496
0.0144596
-6.80603
6.80837
-0.00369021
0.907913
-1.29793
-4.04793
1.91555
6.43389
-7.00164
-0.148712
-0.573417
-1.50079
2.05331
0.810501
-6.67466
6.70836
0.0112125
6.23299
-6.25865
-0.285377
6.58884
-6.47768
0.184814
0.278056
-0.0140077
-4.81189
6.59592
1.6743
-3.21487
0.0568965
-1.39343
1.03303
2.75832
-1.01005
0.0107694
-0.00647564
-5.16976
0.019566
-2.85153
1.40314
-0.00594952
-2.66963
-0.0391588
-1.17902
-6.69985
6.77809
-0.814956
0.00610015
0.00978757
-14.8313
-2.35886
-10.6309
6.86206
-6.78977
0.213663
3.57815
3.22336
-0.704144
1.53483
2.10922
-3.64405
0.041722
0.91848
-0.0839365
-4.13289
5.73647
0.743012
1.31041
1.10565
-6.87575
6.8928
0.0346428
-0.00421932
0.546959
-1.65148
1.12283
0.880863
-0.708434
-6.50111
6.58828
0.0252916
0.105962
-32.1801
-0.0623006
-10.167
0.0364503
0.00621343
-1.26674
1.73498
-0.88994
-0.306375
1.1508
1.22787
6.60751
-6.10715
2.92292
-3.1439
-0.0269191
-0.586443
5.77654
-6.39183
-3.82284
-3.28022
1.83693
6.62205
-6.50374
0.14437
2.88206
4.07482
6.46021
-3.94853
0.957874
-3.19098
-5.46212
4.7118
1.1454
-2.59731
0.013924
6.96057
-4.93547
2.14868
2.53322
6.24557
-4.59695
2.11268
1.99897
0.879702
-2.16346
0.942035
5.64173
-6.05662
-2.39465
0.933323
6.86161
-7.05983
0.161767
-1.7766
0.987369
-2.30298
-2.15977
-1.36743
-3.42821
4.96349
2.30827
-3.28729
-3.66182
-3.46865
-6.25913
-7.29148
0.00406225
-2.56777
0.00249686
-1.69359
0.330717
-1.92614
-3.82344
0.632457
-2.67593
4.45296
2.71863
6.98618
6.79346
-0.89845
2.57276
-7.4731
7.65229
4.33766
-3.30462
7.42662
-7.17277
-6.8778
6.87185
0.274356
-7.40133
7.14651
-7.43948
7.48079
-0.548795
-2.31163
0.617188
-1.56867
6.66241
-7.45282
-0.658975
7.00953
-6.10742
7.18014
-6.23536
0.131611
-6.84961
6.86759
-7.4801
7.48109
-0.00706981
-2.01159
0.807817
-7.0366
6.70839
0.0011067
6.83467
-6.84116
-1.33041
0.55054
4.50183
-2.96701
3.60338
1.37065
-6.84745
6.86086
6.91561
-6.87389
0.885726
-6.50038
6.81863
1.96374
5.02181
-4.96704
-4.44166
2.48754
-6.85077
6.88541
-1.25689
2.09252
1.46231
-6.15956
-6.32772
6.15964
-6.77962
6.88238
0.0546014
0.154387
6.84888
-6.85167
0.0014309
6.44817
-7.61751
-0.0179133
6.86184
-6.87585
6.83638
-6.86372
6.85446
-6.84369
0.00278649
-6.85204
6.87098
1.76027
-3.61009
0.596467
-1.3739
-0.816498
-0.669594
6.871
-6.86061
-6.65256
6.67038
-0.00644896
6.85909
-6.93098
0.00271133
6.83624
-6.85938
6.70194
-4.53998
-6.64377
6.71253
-0.0143194
-6.31181
6.36043
-0.961463
1.86757
-1.99351
0.726444
-1.37688
-6.35477
7.23447
-2.00147
1.11124
-14.9107
16.9764
0.0827626
6.58452
-6.56913
0.0705015
-1.09677
2.24035
7.28252
-6.87012
0.92775
-6.86244
6.84723