/*--------------------------------*- C++ -*----------------------------------*\
  =========                 |
  \\      /  F ield         | OpenFOAM: The Open Source CFD Toolbox
   \\    /   O peration     | Website:  https://openfoam.org
    \\  /    A nd           | Version:  6
     \\/     M anipulation  |
\*---------------------------------------------------------------------------*/
FoamFile
{
    version     2.0;
    format      ascii;
    class       volVectorField;
    location    "0.0006";
    object      U;
}
// * * * * * * * * * * * * * * * * * * * * * * * * * * * * * * * * * * * * * //

dimensions      [0 1 -1 0 0 0 0];

internalField   nonuniform List<vector> 
3704
(
(650 -6.84111e-13 0)
(650 -1.48119e-12 0)
(650 -1.58518e-12 0)
(650 -1.28972e-12 0)
(650 -8.56334e-13 0)
(650 -7.29521e-13 0)
(650 -1.36697e-12 0)
(650 -4.07745e-12 0)
(650 -2.12903e-11 0)
(650 -1.22658e-10 0)
(650 -7.00561e-10 0)
(650 -3.82875e-09 0)
(650 -1.9884e-08 0)
(650 -9.67295e-08 0)
(650 -4.37546e-07 0)
(650 -1.79697e-06 0)
(650 -6.28599e-06 0)
(650 -1.9784e-05 0)
(650 -6.86644e-05 0)
(650 -5.23222e-05 0)
(650 -1.09035e-05 0)
(650 -1.68952e-06 0)
(650 -2.8005e-07 0)
(650 -5.12681e-08 0)
(650 -1.2228e-08 0)
(650 -3.24575e-09 0)
(650 -7.35866e-10 0)
(650 -1.18129e-10 0)
(650 -2.59427e-12 0)
(650 2.4897e-11 0)
(650 3.89476e-11 0)
(650 6.78178e-11 0)
(650 9.01874e-11 0)
(650 1.1632e-10 0)
(650 1.7196e-10 0)
(650 3.18688e-10 0)
(650 7.12927e-10 0)
(650 1.69816e-09 0)
(650 3.99814e-09 0)
(650 8.82839e-09 0)
(650 1.8902e-08 0)
(650 4.16075e-08 0)
(650 9.10451e-08 0)
(650 2.12254e-07 0)
(650 3.97492e-07 0)
(650 7.74607e-07 0)
(650 1.33465e-06 0)
(650 1.92028e-06 0)
(650 2.88519e-06 0)
(650 3.33414e-06 0)
(650 -5.29162e-13 0)
(650 -1.617e-12 0)
(650 -1.75175e-12 0)
(650 -1.52909e-12 0)
(650 -1.07078e-12 0)
(650 -9.59689e-13 0)
(650 -1.57886e-12 0)
(650 -5.01994e-12 0)
(650 -2.5493e-11 0)
(650 -1.45446e-10 0)
(650 -8.26056e-10 0)
(650 -4.49132e-09 0)
(650 -2.32522e-08 0)
(650 -1.12191e-07 0)
(650 -5.05566e-07 0)
(650 -2.10182e-06 0)
(650 -7.31926e-06 0)
(650 -2.33142e-05 0)
(650 -9.52275e-05 0)
(650 -6.92797e-05 0)
(650 -1.47126e-05 0)
(650 -2.39117e-06 0)
(650 -4.07053e-07 0)
(650 -7.40773e-08 0)
(650 -1.75599e-08 0)
(650 -4.79835e-09 0)
(650 -1.14021e-09 0)
(650 -1.96724e-10 0)
(650 -1.5235e-11 0)
(650 2.63999e-11 0)
(650 4.48848e-11 0)
(650 8.23145e-11 0)
(650 1.13442e-10 0)
(650 1.45327e-10 0)
(650 2.00873e-10 0)
(650 3.47933e-10 0)
(650 7.63135e-10 0)
(650 1.84041e-09 0)
(650 4.43365e-09 0)
(650 9.72288e-09 0)
(650 2.03901e-08 0)
(650 4.4733e-08 0)
(650 9.62837e-08 0)
(650 2.32989e-07 0)
(650 4.23385e-07 0)
(650 8.11374e-07 0)
(650 1.31323e-06 0)
(650 1.81248e-06 0)
(650 2.66562e-06 0)
(650 3.02305e-06 0)
(650 -2.43103e-13 0)
(650 -1.66479e-12 0)
(650 -1.83267e-12 0)
(650 -1.86352e-12 0)
(650 -1.41915e-12 0)
(650 -1.41299e-12 0)
(650 -2.07146e-12 0)
(650 -5.67506e-12 0)
(650 -2.73022e-11 0)
(650 -1.5417e-10 0)
(650 -8.73939e-10 0)
(650 -4.75653e-09 0)
(650 -2.4746e-08 0)
(650 -1.19323e-07 0)
(650 -5.42849e-07 0)
(650 -2.33144e-06 0)
(650 -8.05253e-06 0)
(650 -2.5886e-05 0)
(650 -0.000127804 0)
(650 -8.79491e-05 0)
(650 -1.89761e-05 0)
(650 -3.26225e-06 0)
(650 -5.71824e-07 0)
(650 -1.03507e-07 0)
(650 -2.42316e-08 0)
(650 -6.76811e-09 0)
(650 -1.68203e-09 0)
(650 -3.07659e-10 0)
(650 -3.14677e-11 0)
(650 2.70132e-11 0)
(650 4.97221e-11 0)
(650 9.49098e-11 0)
(650 1.35105e-10 0)
(650 1.74828e-10 0)
(650 2.27191e-10 0)
(650 3.6868e-10 0)
(650 7.99388e-10 0)
(650 1.94841e-09 0)
(650 4.82578e-09 0)
(650 1.05172e-08 0)
(650 2.15714e-08 0)
(650 4.72348e-08 0)
(650 1.00499e-07 0)
(650 2.52652e-07 0)
(650 4.47528e-07 0)
(650 8.44702e-07 0)
(650 1.30057e-06 0)
(650 1.72721e-06 0)
(650 2.44075e-06 0)
(650 2.74683e-06 0)
(650 -2.85124e-13 0)
(650 -1.6967e-12 0)
(650 -1.83455e-12 0)
(650 -2.10806e-12 0)
(650 -1.86241e-12 0)
(650 -1.68884e-12 0)
(650 -2.51878e-12 0)
(650 -6.07856e-12 0)
(650 -2.83188e-11 0)
(650 -1.56616e-10 0)
(650 -8.84187e-10 0)
(650 -4.81047e-09 0)
(650 -2.51892e-08 0)
(650 -1.21292e-07 0)
(650 -5.59656e-07 0)
(650 -2.51161e-06 0)
(650 -8.2284e-06 0)
(650 -2.69305e-05 0)
(650 -0.000170544 0)
(650 -0.000109344 0)
(650 -2.42289e-05 0)
(650 -4.43438e-06 0)
(650 -7.98116e-07 0)
(650 -1.436e-07 0)
(650 -3.29707e-08 0)
(650 -9.34129e-09 0)
(650 -2.42761e-09 0)
(650 -4.69336e-10 0)
(650 -5.52334e-11 0)
(650 2.67376e-11 0)
(650 5.44028e-11 0)
(650 1.06529e-10 0)
(650 1.57443e-10 0)
(650 2.08705e-10 0)
(650 2.57475e-10 0)
(650 3.8365e-10 0)
(650 8.29504e-10 0)
(650 2.03053e-09 0)
(650 5.21249e-09 0)
(650 1.1317e-08 0)
(650 2.25928e-08 0)
(650 4.94324e-08 0)
(650 1.04369e-07 0)
(650 2.7126e-07 0)
(650 4.72221e-07 0)
(650 8.7833e-07 0)
(650 1.29001e-06 0)
(650 1.66416e-06 0)
(650 2.19187e-06 0)
(650 2.49067e-06 0)
(650 -5.06542e-13 0)
(650 -1.73615e-12 0)
(650 -2.01991e-12 0)
(650 -2.29491e-12 0)
(650 -2.08962e-12 0)
(650 -1.62103e-12 0)
(650 -2.63995e-12 0)
(650 -5.29618e-12 0)
(650 -2.32772e-11 0)
(650 -1.26806e-10 0)
(650 -7.23365e-10 0)
(650 -3.99807e-09 0)
(650 -2.16515e-08 0)
(650 -1.06294e-07 0)
(650 -5.21636e-07 0)
(650 -2.57758e-06 0)
(650 -7.56377e-06 0)
(650 -2.25106e-05 0)
(650 -0.000220708 0)
(650 -0.000130976 0)
(650 -3.09959e-05 0)
(650 -5.96155e-06 0)
(650 -1.09755e-06 0)
(650 -1.97218e-07 0)
(650 -4.42769e-08 0)
(650 -1.2659e-08 0)
(650 -3.42215e-09 0)
(650 -6.93879e-10 0)
(650 -8.98742e-11 0)
(650 2.44567e-11 0)
(650 5.78378e-11 0)
(650 1.15444e-10 0)
(650 1.76523e-10 0)
(650 2.39437e-10 0)
(650 2.88059e-10 0)
(650 3.89633e-10 0)
(650 8.51618e-10 0)
(650 2.08205e-09 0)
(650 5.53901e-09 0)
(650 1.2002e-08 0)
(650 2.3125e-08 0)
(650 5.08097e-08 0)
(650 1.07007e-07 0)
(650 2.86375e-07 0)
(650 4.94251e-07 0)
(650 9.06425e-07 0)
(650 1.27312e-06 0)
(650 1.62228e-06 0)
(650 1.97023e-06 0)
(650 2.31421e-06 0)
(103.331 316.681 1.13026e-19)
(454.988 227.101 4.50828e-20)
(454.082 158.632 -3.39669e-19)
(573.191 406.224 7.71833e-17)
(523.894 375.257 -1.25047e-18)
(542.648 124.739 2.02094e-17)
(510.173 -72.9022 0)
(463.783 -137.555 -2.20731e-18)
(429.694 -170.154 1.32981e-18)
(370.927 -181.937 8.17172e-17)
(296.271 -195.11 2.89703e-18)
(259.586 -148.117 -9.41006e-17)
(165.052 -76.4328 -7.51964e-17)
(17.5597 -54.8315 0)
(15.3561 -146.436 5.20726e-18)
(128.125 389.61 0)
(433.271 244.075 -5.98364e-18)
(441.362 306.754 0)
(557.71 581.591 -3.53808e-17)
(585.38 431.766 -4.29271e-17)
(570.175 128.815 -3.34808e-17)
(515.074 -49.1826 -1.82641e-17)
(479.109 -117.158 1.01332e-18)
(446.929 -139.943 3.43195e-17)
(371.856 -198.24 -3.77849e-17)
(331.918 -203.164 -7.051e-17)
(317.926 -146.004 -2.11057e-18)
(232.939 -78.0473 6.49123e-17)
(4.12643 -61.6797 0)
(11.7704 -137.094 4.84295e-18)
(133.415 427.566 0)
(357.18 283.398 5.7025e-18)
(381.44 378.578 -3.87652e-17)
(515.195 535.16 0)
(640.796 345.471 7.70589e-17)
(615.043 116.9 3.48905e-17)
(519.913 -43.0891 1.76667e-17)
(479.804 -121.056 1.48415e-18)
(437.429 -147.206 -2.9483e-17)
(383.654 -208.825 -6.77576e-17)
(347.975 -192.949 1.3421e-16)
(344.339 -141.903 6.23197e-17)
(272.851 -77.8295 5.55367e-17)
(-3.17869 -51.5616 1.98682e-17)
(6.51897 -134.386 -2.33108e-18)
(150.478 449.034 0)
(293.453 318.48 -9.98159e-18)
(386.888 355.602 2.26325e-17)
(485.757 451.359 6.46007e-19)
(645.241 304.686 2.42771e-18)
(637.47 93.1425 -6.57345e-17)
(522.84 -57.2133 2.00891e-17)
(473.745 -133.109 1.7035e-18)
(432.603 -162.39 -5.91529e-17)
(391.523 -211.107 6.27905e-17)
(356.763 -187.73 -1.23034e-16)
(358.205 -146.526 -2.55951e-19)
(309.707 -86.1658 -3.10679e-19)
(1.00962 -23.6928 6.71343e-19)
(-2.2966 -133.586 -2.40212e-18)
(176.743 461.452 0)
(305.996 310.49 1.66379e-17)
(415.346 313.205 3.53401e-19)
(525.717 380.424 0)
(644.377 265.231 -3.33847e-17)
(654.159 72.1165 6.51502e-17)
(541.333 -83.2607 -1.82884e-17)
(466.797 -136.568 -1.12114e-18)
(431.803 -168.091 7.69922e-17)
(388.059 -214.836 8.08706e-19)
(360.326 -190.752 5.8885e-17)
(362.748 -154.878 -1.1728e-16)
(342.925 -96.246 -5.16869e-17)
(-3.58874 18.1749 -6.51564e-17)
(-17.7645 -133.609 4.22166e-18)
(-6.99881 1.00182 0)
(-9.67114 -99.0321 -1.3202e-18)
(217.018 85.471 -4.60329e-18)
(249.185 194.899 9.48837e-17)
(276.343 242.561 0)
(369.147 221.234 6.83233e-17)
(474.77 126.175 3.04891e-17)
(497.256 80.9714 -1.28553e-18)
(501.009 104.236 -2.54686e-19)
(527.801 60.4993 2.0103e-19)
(518.161 -220.685 1.08986e-18)
(449.205 -490.021 6.74065e-17)
(410.767 -260.971 -7.22497e-19)
(161.64 -111.498 0)
(-133.318 427.008 -9.36491e-18)
(-1.86005 15.0171 0)
(11.0395 -89.4159 0)
(278.68 87.8594 -7.34867e-17)
(296.564 171.47 -8.06059e-17)
(296.487 251.745 -1.12407e-18)
(351.487 247.262 4.29538e-18)
(470.345 113.799 3.0171e-17)
(515.318 13.5602 -3.20115e-19)
(500.795 67.509 1.52203e-17)
(519.488 24.883 2.46564e-17)
(539.354 -239.486 0)
(477.453 -461.195 -3.36235e-17)
(350.271 -402.415 4.84758e-17)
(110.301 -157.109 3.95445e-19)
(-72.288 339.6 0)
(0.523859 26.6866 0)
(28.5328 -93.1596 -9.98854e-19)
(327.003 80.4945 9.76515e-19)
(337.81 155.568 -6.6689e-17)
(317.482 233.821 0)
(357.836 257.394 -6.7701e-17)
(432.349 182.198 -8.44669e-17)
(498.326 50.5697 0)
(518.874 55.9715 -1.24459e-17)
(512.176 -19.5446 1.02507e-17)
(574.45 -240.994 -4.13641e-19)
(508.923 -433.759 5.52981e-19)
(322.238 -408.431 -7.57429e-17)
(108.08 -251.239 0)
(-60.5941 334.765 0)
(-2.87317 38.627 0)
(39.7046 -107.552 0)
(361.891 84.5896 6.10561e-17)
(358.05 152.825 6.2577e-17)
(331.342 215.803 6.67236e-17)
(367.92 256.687 -2.45047e-19)
(417.34 214.189 5.3377e-17)
(488.13 100.661 -7.77919e-19)
(526.491 79.1501 1.56448e-17)
(521.942 -21.4106 -2.68786e-17)
(622.834 -223.592 9.27697e-19)
(535.063 -418.41 -1.49985e-18)
(341.49 -390.212 3.29457e-17)
(168.582 -269.763 3.88556e-19)
(-19.3365 356.618 -7.62615e-18)
(-16.93 51.1855 0)
(39.9895 -133.739 -9.33522e-19)
(390.545 94.4014 -1.18258e-19)
(366.619 157.855 -6.03397e-17)
(336.451 214.195 -6.17045e-17)
(365.172 259.839 -9.72767e-19)
(413.25 226.005 2.59688e-17)
(484.746 144.248 6.8588e-19)
(526.586 115.669 -1.73636e-17)
(557.013 3.99017 3.22263e-17)
(668.837 -204.439 2.22163e-17)
(563.735 -378.758 -1.29222e-18)
(387.233 -361.223 -3.29876e-17)
(208.956 -281.76 0)
(41.5537 370.269 5.98886e-18)
(650 -6.0165e-06 0)
(650 -5.10261e-06 0)
(650 -4.72055e-06 0)
(650 -2.91693e-06 0)
(650 -1.51933e-06 0)
(650 -7.09269e-07 0)
(650 -3.59816e-07 0)
(650 -1.6272e-07 0)
(650 -6.96272e-08 0)
(650 -2.93725e-08 0)
(650 -1.26731e-08 0)
(650 -5.36016e-09 0)
(650 -2.23123e-09 0)
(650 -9.03141e-10 0)
(650 -3.9533e-10 0)
(650 -1.82854e-10 0)
(650 -8.88062e-11 0)
(650 -5.25707e-11 0)
(650 -3.37103e-11 0)
(650 -1.29161e-11 0)
(650 2.1399e-10 0)
(650 1.95286e-09 0)
(650 7.91871e-09 0)
(650 2.24524e-08 0)
(650 4.63518e-08 0)
(650 8.44964e-08 0)
(650 2.47544e-07 0)
(650 5.98418e-07 0)
(650 6.68608e-07 0)
(650 -2.22702e-07 0)
(650 -7.03654e-06 0)
(650 -2.12489e-05 0)
(650 -2.55413e-05 0)
(650 -7.89329e-06 0)
(650 -1.89574e-06 0)
(650 -4.0612e-07 0)
(650 -7.10632e-08 0)
(650 -7.93656e-09 0)
(650 1.60834e-09 0)
(650 1.25882e-09 0)
(650 4.08008e-10 0)
(650 1.14759e-10 0)
(650 2.88697e-11 0)
(650 6.21893e-12 0)
(650 9.94605e-13 0)
(650 2.06577e-13 0)
(650 5.78551e-13 0)
(650 7.80582e-13 0)
(650 8.95116e-13 0)
(650 4.43064e-13 0)
(650 -5.53446e-06 0)
(650 -4.72891e-06 0)
(650 -4.55606e-06 0)
(650 -2.87256e-06 0)
(650 -1.59923e-06 0)
(650 -7.35856e-07 0)
(650 -3.93385e-07 0)
(650 -1.78016e-07 0)
(650 -7.46534e-08 0)
(650 -3.14815e-08 0)
(650 -1.39153e-08 0)
(650 -5.91225e-09 0)
(650 -2.47048e-09 0)
(650 -9.81569e-10 0)
(650 -4.44395e-10 0)
(650 -2.10831e-10 0)
(650 -1.01198e-10 0)
(650 -6.15984e-11 0)
(650 -3.9796e-11 0)
(650 -7.45491e-12 0)
(650 4.18e-10 0)
(650 3.17877e-09 0)
(650 1.19036e-08 0)
(650 3.12908e-08 0)
(650 5.98958e-08 0)
(650 1.06649e-07 0)
(650 3.29754e-07 0)
(650 6.44975e-07 0)
(650 6.67927e-07 0)
(650 -8.42428e-07 0)
(650 -1.07527e-05 0)
(650 -3.13799e-05 0)
(650 -3.89379e-05 0)
(650 -1.16513e-05 0)
(650 -2.62369e-06 0)
(650 -5.58588e-07 0)
(650 -9.94492e-08 0)
(650 -1.28421e-08 0)
(650 7.3653e-10 0)
(650 1.33898e-09 0)
(650 4.4212e-10 0)
(650 1.25137e-10 0)
(650 3.20598e-11 0)
(650 7.27598e-12 0)
(650 1.26814e-12 0)
(650 4.16615e-13 0)
(650 5.39422e-13 0)
(650 9.63411e-13 0)
(650 1.10604e-12 0)
(650 7.20307e-13 0)
(650 -5.12581e-06 0)
(650 -4.3811e-06 0)
(650 -4.39041e-06 0)
(650 -2.83353e-06 0)
(650 -1.67832e-06 0)
(650 -7.64306e-07 0)
(650 -4.24882e-07 0)
(650 -1.92676e-07 0)
(650 -7.8431e-08 0)
(650 -3.31414e-08 0)
(650 -1.50512e-08 0)
(650 -6.37645e-09 0)
(650 -2.66352e-09 0)
(650 -1.03445e-09 0)
(650 -4.87184e-10 0)
(650 -2.35389e-10 0)
(650 -1.11738e-10 0)
(650 -6.93639e-11 0)
(650 -4.47696e-11 0)
(650 2.25357e-12 0)
(650 7.722e-10 0)
(650 4.92039e-09 0)
(650 1.71569e-08 0)
(650 4.16661e-08 0)
(650 7.43294e-08 0)
(650 1.29945e-07 0)
(650 4.00166e-07 0)
(650 6.83033e-07 0)
(650 6.15094e-07 0)
(650 -1.69727e-06 0)
(650 -1.46368e-05 0)
(650 -4.1335e-05 0)
(650 -5.29605e-05 0)
(650 -1.54242e-05 0)
(650 -3.20215e-06 0)
(650 -6.64707e-07 0)
(650 -1.15596e-07 0)
(650 -1.54665e-08 0)
(650 1.50964e-10 0)
(650 1.3457e-09 0)
(650 4.59734e-10 0)
(650 1.28399e-10 0)
(650 3.27902e-11 0)
(650 7.79891e-12 0)
(650 1.447e-12 0)
(650 6.13357e-13 0)
(650 7.16706e-13 0)
(650 1.14907e-12 0)
(650 1.26478e-12 0)
(650 8.05875e-13 0)
(650 -4.75531e-06 0)
(650 -4.06124e-06 0)
(650 -4.20346e-06 0)
(650 -2.81044e-06 0)
(650 -1.76029e-06 0)
(650 -8.04099e-07 0)
(650 -4.55966e-07 0)
(650 -2.08e-07 0)
(650 -8.10438e-08 0)
(650 -3.48062e-08 0)
(650 -1.64127e-08 0)
(650 -6.84247e-09 0)
(650 -2.8265e-09 0)
(650 -1.07517e-09 0)
(650 -5.35276e-10 0)
(650 -2.60641e-10 0)
(650 -1.22094e-10 0)
(650 -7.62681e-11 0)
(650 -4.97078e-11 0)
(650 2.08379e-11 0)
(650 1.47189e-09 0)
(650 7.70574e-09 0)
(650 2.47662e-08 0)
(650 5.47802e-08 0)
(650 9.06673e-08 0)
(650 1.56636e-07 0)
(650 4.64182e-07 0)
(650 7.23108e-07 0)
(650 4.70614e-07 0)
(650 -2.94608e-06 0)
(650 -1.95809e-05 0)
(650 -5.16958e-05 0)
(650 -6.88474e-05 0)
(650 -1.97747e-05 0)
(650 -3.71701e-06 0)
(650 -7.4579e-07 0)
(650 -1.2456e-07 0)
(650 -1.70087e-08 0)
(650 -2.85197e-10 0)
(650 1.31214e-09 0)
(650 4.72871e-10 0)
(650 1.28252e-10 0)
(650 3.2234e-11 0)
(650 7.74312e-12 0)
(650 1.56557e-12 0)
(650 6.64848e-13 0)
(650 1.00441e-12 0)
(650 1.17289e-12 0)
(650 1.23031e-12 0)
(650 7.36302e-13 0)
(650 -4.50773e-06 0)
(650 -3.80024e-06 0)
(650 -3.99644e-06 0)
(650 -2.81104e-06 0)
(650 -1.83125e-06 0)
(650 -8.45324e-07 0)
(650 -4.81505e-07 0)
(650 -2.21949e-07 0)
(650 -8.1444e-08 0)
(650 -3.61057e-08 0)
(650 -1.77852e-08 0)
(650 -7.1936e-09 0)
(650 -2.88458e-09 0)
(650 -1.08498e-09 0)
(650 -5.82071e-10 0)
(650 -2.81684e-10 0)
(650 -1.30152e-10 0)
(650 -8.14066e-11 0)
(650 -5.38444e-11 0)
(650 5.89278e-11 0)
(650 2.49258e-09 0)
(650 1.12478e-08 0)
(650 3.31887e-08 0)
(650 6.73112e-08 0)
(650 1.05178e-07 0)
(650 1.8237e-07 0)
(650 5.10391e-07 0)
(650 7.62224e-07 0)
(650 2.14889e-07 0)
(650 -4.64675e-06 0)
(650 -2.54177e-05 0)
(650 -6.21781e-05 0)
(650 -8.69763e-05 0)
(650 -2.46089e-05 0)
(650 -3.90858e-06 0)
(650 -7.25316e-07 0)
(650 -1.07261e-07 0)
(650 -1.32549e-08 0)
(650 3.20565e-10 0)
(650 1.41772e-09 0)
(650 4.8486e-10 0)
(650 1.21336e-10 0)
(650 2.89195e-11 0)
(650 6.60993e-12 0)
(650 1.31188e-12 0)
(650 7.69316e-13 0)
(650 1.08675e-12 0)
(650 1.19061e-12 0)
(650 1.2702e-12 0)
(650 8.00769e-13 0)
(650 2.07134e-12 0)
(650 -1.82332e-12 0)
(650 -2.26451e-12 1.08353e-17)
(650 -2.85912e-13 -1.12694e-17)
(650 5.58648e-14 0)
(650 -5.98802e-13 0)
(650 -1.50782e-12 1.10349e-17)
(650 -3.02314e-12 4.37912e-17)
(650 -3.55677e-12 0)
(650 -3.44479e-12 0)
(650 -2.10317e-11 -2.14962e-17)
(650 -6.67758e-10 -2.15698e-17)
(650 1.84158e-08 -2.15867e-17)
(650 -6.89874e-06 -2.14818e-17)
(650 0.000162859 -2.10658e-17)
(650 -0.000584241 2.07787e-17)
(650 -3.06114e-05 4.17074e-17)
(650 -1.49105e-06 4.17634e-17)
(650 -9.68263e-08 0)
(650 -6.87939e-09 2.09306e-17)
(650 -1.38908e-10 -4.18686e-17)
(650 6.27334e-11 -2.08583e-17)
(650 2.09035e-10 0)
(650 4.30501e-10 2.09195e-17)
(650 2.33275e-09 -2.09379e-17)
(650 1.06654e-08 2.09158e-17)
(650 4.88763e-08 -2.09795e-17)
(650 2.73684e-07 4.2271e-17)
(650 8.83049e-07 0)
(650 1.46048e-06 0)
(650 4.2882e-06 3.76909e-17)
(650 1.8426e-06 -1.07176e-17)
(650 2.45264e-06 -1.09529e-17)
(650 -1.01307e-06 -2.26329e-17)
(650 3.73327e-06 0)
(650 -8.49622e-06 0)
(650 -6.33091e-06 -1.04547e-17)
(650 -1.10121e-06 0)
(650 -6.46887e-08 2.09495e-17)
(650 -3.06267e-09 -2.5694e-28)
(650 -0.000273734 2.08541e-17)
(655.651 -6.27791 -2.00275e-17)
(652.49 0.769888 2.35078e-17)
(647.783 -8.38299 -3.32786e-19)
(660.887 -4.66034 0)
(649.384 6.06504 4.64337e-17)
(645.202 7.47838 0)
(650.95 -0.710116 -2.00739e-17)
(647.214 3.59029 0)
(648.982 -6.75563 -1.0744e-17)
(650.817 -0.916604 -3.16263e-17)
(650.131 -0.283902 0)
(647.05 -4.31144 0)
(602.664 2.6345 4.10897e-17)
(480.697 -19.801 0)
(509.766 -152.824 6.58206e-18)
(523.271 -201.932 0)
(521.998 167.755 1.99516e-17)
(420.371 452.361 0)
(286.287 431.265 -2.04622e-17)
(417.741 388.65 1.24003e-17)
(649.875 0.129264 -2.92254e-17)
(466.416 241.92 0)
(548.396 240.403 -5.23269e-18)
(642.543 170.091 -1.19986e-17)
(623.345 -0.957153 -7.31956e-18)
(538.578 -125.647 0)
(452.76 -183.26 -1.96196e-17)
(396.701 -224.376 -2.09849e-17)
(350.497 -269.414 -1.79857e-17)
(340.01 -235.603 1.64429e-17)
(356.869 -182.546 1.91821e-17)
(380.917 -109.151 0)
(-58.1431 190.779 5.2622e-17)
(-117.523 -143.396 1.09967e-17)
(527.231 -32.6152 5.06163e-18)
(647.955 1.73301 0)
(649.993 0.00584424 9.13943e-18)
(650 2.19384e-05 0)
(650 4.31186e-09 0)
(650 -6.65212e-10 0)
(650 1.34165e-10 0)
(650 4.1286e-11 -1.50341e-17)
(650 6.26477e-12 0)
(650 -9.48515e-13 -7.60642e-18)
(650 1.84231e-06 -1.94266e-17)
(650 -1.26866e-06 1.09269e-17)
(90.1943 -232.372 -2.21507e-16)
(650 5.29364e-13 0)
(650 2.08364e-12 0)
(650 2.68981e-14 -2.14967e-17)
(650 4.55577e-13 0)
(650 -8.54383e-13 1.097e-17)
(650 6.01326e-14 -3.49695e-19)
(650 -1.91153e-13 3.34205e-17)
(650 -4.32252e-13 -3.37178e-17)
(650 -2.28325e-12 3.16481e-17)
(650 -2.99642e-12 -2.19885e-17)
(650 -3.86847e-12 0)
(650 -5.83087e-12 -2.13436e-17)
(650 -9.28524e-11 -2.15466e-17)
(650 -9.09961e-09 0)
(650 -3.1233e-07 4.32854e-17)
(650 -3.59948e-05 2.13145e-17)
(650 -0.000438022 -2.09593e-17)
(650 -0.000163964 4.16432e-17)
(650 -7.48458e-06 -2.08565e-17)
(650 -3.14346e-07 2.0894e-17)
(650 -3.02836e-08 2.09057e-17)
(650 -1.0442e-09 -1.83791e-28)
(650 -3.81793e-12 2.09266e-17)
(650 1.3559e-10 0)
(650 2.85073e-10 0)
(650 1.0336e-09 -2.09446e-17)
(650 5.32893e-09 0)
(650 2.1887e-08 2.09468e-17)
(650 1.1428e-07 2.10494e-17)
(650 4.82654e-07 0)
(650 8.30053e-07 -2.17031e-17)
(650 -1.17494e-11 0)
(650 1.05354e-06 2.26139e-17)
(650 -5.50281e-07 1.04074e-17)
(650 -9.80696e-08 2.24567e-17)
(650 3.23771e-06 1.11252e-17)
(650 -3.9374e-12 0)
(650 9.38303e-07 0)
(650 -1.48138e-06 0)
(650 -2.74802e-06 -1.98138e-17)
(264.328 182.084 -6.15424e-16)
(650 -4.12467e-07 1.92704e-17)
(650 -2.6519e-07 2.09302e-17)
(650 -1.16462e-08 0)
(650 -6.4911e-08 -5.81162e-26)
(650.013 -1.14867 -2.0879e-17)
(657.59 -3.20353 -6.40438e-18)
(649.236 2.2437 0)
(649.321 -10.7239 0)
(654.33 1.46291 2.81248e-17)
(645.22 9.24727 0)
(646.309 4.83337 2.08083e-17)
(647.979 3.13348 0)
(646.976 -1.09453 0)
(651.354 -3.91334 -1.97063e-17)
(651.125 -1.81204 -2.12138e-17)
(648.183 -1.26034 0)
(637.042 -4.0757 0)
(538.981 36.0582 -1.3686e-17)
(558.34 -172.866 0)
(411.585 -216.395 0)
(577.715 33.5402 0)
(486.194 256.42 2.01382e-17)
(643.606 185.217 -7.08302e-19)
(473.254 244.036 0)
(409.002 284.225 -1.00849e-17)
(547.886 216.204 4.22041e-18)
(659.96 33.2086 6.28368e-18)
(595.469 -117.6 0)
(500.882 -201.308 -1.28174e-17)
(413.269 -252.47 5.56533e-17)
(369.389 -275.858 1.69517e-18)
(329.862 -289.935 -3.39459e-17)
(322.633 -266.419 -2.82247e-17)
(343.344 -197.73 0)
(377.904 -115.022 0)
(589.494 39.4042 1.89259e-17)
(649.92 0.0847998 -1.15621e-17)
(649.999 0.000395592 0)
(650 -0.000131487 3.19331e-18)
(650 9.91769e-07 3.79729e-25)
(650 -4.21232e-07 1.65841e-17)
(650 -3.84486e-09 -4.34871e-27)
(650 -3.79588e-10 1.4187e-17)
(650 1.13752e-10 -3.57307e-17)
(650 1.41982e-11 -2.2716e-17)
(650 2.89964e-12 0)
(650 -1.23277e-13 -1.11802e-17)
(650 3.73143e-13 -1.12249e-17)
(650 -1.96068e-13 1.24122e-17)
(650 -2.71796e-12 4.22493e-20)
(650 -5.61966e-12 0)
(650 -5.56887e-11 0)
(650 -1.54761e-09 2.1501e-17)
(650 -4.51043e-08 0)
(650 -5.04843e-07 -2.15701e-17)
(650 0.000155099 1.81362e-24)
(650 0.00106151 2.09776e-17)
(650 -0.00149934 -4.15725e-17)
(650 -6.63516e-05 -2.08075e-17)
(650 -3.14313e-06 -4.17445e-17)
(650 -3.47107e-07 1.01966e-20)
(650 -1.54241e-08 2.0893e-17)
(650 -3.47714e-10 1.02074e-20)
(650 -8.20653e-11 4.06373e-20)
(650 7.25103e-11 0)
(650 4.16976e-10 -2.09154e-17)
(650 7.92588e-10 2.09386e-17)
(650 2.39945e-09 -2.09032e-17)
(650 1.87551e-08 2.10683e-17)
(650 1.07492e-07 -2.14596e-17)
(650 3.97831e-07 0)
(650 1.64368e-06 0)
(650 -1.79004e-06 -2.1861e-17)
(650 -1.36729e-06 1.13064e-17)
(650 1.32634e-06 -1.53639e-18)
(650 1.51136e-07 -6.35015e-19)
(650 9.47047e-10 -1.63395e-19)
(650 -2.10816e-09 4.15861e-17)
(650 -0.014323 -2.08122e-17)
(658.965 -6.11255 1.97081e-17)
(651.523 -9.49269 0)
(649.424 -4.67344 -2.11878e-17)
(658.442 -7.93765 -1.73778e-17)
(649.541 -3.23915 -2.11036e-17)
(648.814 8.79305 -2.06552e-17)
(653.309 8.6144 0)
(648.881 4.31808 0)
(651.083 4.82781 3.25805e-17)
(650.291 0.967425 3.20632e-17)
(649.302 0.0216646 0)
(643.711 0.987439 3.92039e-18)
(569.705 35.3568 -2.60062e-17)
(563.7 31.3684 0)
(430.897 -68.6222 -9.37916e-18)
(576.483 207.864 0)
(529.138 280.257 -1.38043e-17)
(649.455 0.823417 -7.1545e-21)
(395.757 -15.3692 -8.14935e-18)
(649.39 -0.460674 1.22274e-17)
(649.998 -0.00184736 -3.91276e-18)
(650 -7.02365e-06 -2.08228e-17)
(650 -3.42923e-08 1.41105e-17)
(650 -1.03729e-09 -1.68167e-17)
(650 -4.52624e-11 1.53823e-17)
(650 2.74877e-12 2.53552e-17)
(650 -8.23611e-09 4.31429e-17)
(650 -1.51412e-07 2.15561e-17)
(650 8.30419e-06 -2.16424e-17)
(650 0.000804662 2.11721e-17)
(650 -0.00172537 8.13642e-20)
(650 -0.000232752 -4.15818e-17)
(650 -1.70254e-05 2.47417e-25)
(650 -9.14913e-07 2.04115e-20)
(650 -9.61478e-08 -4.18221e-17)
(650 -1.93576e-09 -3.1063e-29)
(650 -1.64773e-10 2.08641e-17)
(650 -3.57736e-12 0)
(650 2.44418e-10 2.03536e-20)
(650 6.73596e-10 2.09454e-17)
(650 1.59687e-09 0)
(650 5.45871e-09 -2.0921e-17)
(650 2.98344e-08 -4.2461e-17)
(650 1.87875e-07 3.39701e-19)
(650 1.58828e-06 2.17526e-17)
(650 2.45771e-06 1.02301e-17)
(650 1.74936e-06 0)
(650 4.85191e-06 1.38405e-18)
(650.618 -0.942245 4.51265e-17)
(654.81 -9.56759 -4.34492e-17)
(649.122 -7.00744 2.08111e-17)
(658.383 -6.54808 0)
(652.796 -8.44472 -1.89029e-17)
(648.054 2.26659 2.75513e-20)
(647.528 14.383 2.50618e-17)
(646.188 6.54531 4.71411e-20)
(648.005 2.14597 0)
(650.796 3.80246 2.08745e-17)
(651.139 0.793836 6.3568e-19)
(647.438 -0.508948 0)
(625.548 5.2432 -1.87137e-17)
(529.392 80.9933 1.69682e-17)
(550.435 -63.2844 -4.66631e-18)
(289.982 -190.244 0)
(587.147 232.798 -8.5829e-18)
(500.052 379.958 0)
(650 -3.38237e-12 -4.24735e-17)
(650 -3.12753e-10 2.11105e-17)
(650 -1.85958e-12 -1.01907e-17)
(650 -1.46394e-06 -1.11385e-17)
(650 -4.15951e-06 -2.08614e-17)
(650 -3.38414e-09 -2.09616e-17)
(650 9.49433e-08 -4.14949e-17)
(650 -3.11455e-12 0)
(650 -8.25415e-12 3.57246e-17)
(650 -2.31402e-10 0)
(649.96 -0.0226122 -9.95917e-18)
(640.965 -15.0935 0)
(650 -3.1536e-09 -1.08884e-17)
(650 -1.8616e-12 2.15636e-17)
(650 -1.0212e-12 0)
(650 -4.95259e-13 2.01571e-17)
(650 -1.868e-12 0)
(650 -6.18694e-12 -2.21923e-17)
(650 -1.18254e-06 1.09401e-18)
(650 3.36622e-08 -3.41741e-17)
(650 -1.05939e-09 3.35556e-19)
(650 -1.59357e-12 -2.14081e-17)
(650 3.26098e-08 2.13063e-17)
(650 -8.60594e-11 0)
(650 -3.38177e-09 0)
(650 -2.73627e-07 2.22342e-17)
(650 -3.49663e-07 -2.15063e-17)
(650 -7.24831e-06 -2.15993e-17)
(650.001 0.000930593 0)
(650 0.00239054 2.0839e-17)
(650.001 -0.00311136 8.91123e-22)
(650 -0.00170903 5.06661e-21)
(650 -4.07753e-05 2.08753e-17)
(650 -1.51444e-06 -2.08843e-17)
(650 -1.83257e-07 -2.08909e-17)
(650 -4.6521e-09 2.08759e-17)
(650 4.36609e-10 -2.08632e-17)
(650 8.52724e-11 -2.08594e-17)
(650 3.54727e-10 2.08176e-17)
(650 2.05674e-11 0)
(650 -5.85238e-10 -2.09043e-17)
(650 1.50388e-08 2.10216e-17)
(650 -4.20904e-08 4.27294e-17)
(650 -1.3221e-07 -2.2297e-17)
(650 5.37159e-08 2.10922e-17)
(650 -7.77104e-07 -2.25651e-17)
(650 2.95702e-07 -1.86959e-17)
(650 5.8264e-12 2.56326e-29)
(650 -2.946e-10 2.11157e-17)
(650 -1.31915e-09 -2.12798e-17)
(650 5.36732e-10 2.0759e-17)
(650 9.97826e-07 -4.62385e-18)
(650 4.42299e-07 -2.31918e-17)
(650 1.84048e-06 2.20993e-17)
(650.002 -0.00746325 2.08359e-17)
(650 -6.73307e-12 -2.17063e-17)
(650 -1.05088e-11 2.352e-17)
(650 -4.57512e-11 2.18555e-17)
(582.354 -76.4192 5.10524e-18)
(650 4.45065e-12 -1.77573e-17)
(650 -2.0035e-09 -2.07541e-17)
(650 -1.08835e-09 2.07018e-17)
(650 -2.61233e-05 2.07871e-17)
(650 -0.000227432 0)
(650 -7.11187e-09 2.08957e-17)
(650 -2.04336e-09 -2.09115e-17)
(650.151 -14.2334 0)
(651.437 -11.8411 0)
(650.619 -5.31845 2.01006e-17)
(651.063 -17.6112 -2.12884e-17)
(650.598 -8.54034 -2.08508e-17)
(650.118 0.434895 0)
(646.745 0.449687 -3.56993e-20)
(648.046 4.63206 0)
(647.865 4.37014 -1.70875e-19)
(649.804 1.95693 2.15363e-17)
(651.047 5.26421 -1.30403e-17)
(639.661 32.5336 -1.92436e-17)
(626.932 126.483 -1.14734e-17)
(565.108 197.131 -9.31138e-18)
(620.798 229.33 -1.70372e-17)
(614.544 193.642 0)
(565.19 262.542 -8.94046e-18)
(424.998 363.167 6.66742e-18)
(650 -3.43429e-12 4.42929e-17)
(650 -7.83099e-12 -2.91562e-31)
(626.869 80.2175 0)
(534.812 191.272 0)
(496.145 -89.9769 1.71569e-17)
(579.765 142.785 -5.61295e-18)
(599.18 148.297 1.44173e-17)
(625.328 74.3626 1.26516e-17)
(650 -5.79028e-06 4.39075e-17)
(649.436 -0.0455194 0)
(650 1.34328e-08 2.0378e-17)
(649.998 -0.000367434 -1.07545e-17)
(650 -0.000104011 -3.24706e-17)
(643.175 0.596258 -1.5393e-17)
(649.369 -0.79906 -6.67742e-18)
(650 6.26125e-08 -3.84743e-17)
(650 2.13609e-09 1.10998e-17)
(650 3.2225e-07 -1.51746e-17)
(650 -1.68164e-08 2.04859e-17)
(650 5.10697e-11 4.37128e-17)
(649.966 -0.00638869 -1.8401e-17)
(649.999 -0.00157854 2.39361e-17)
(650 3.21625e-11 -3.60331e-17)
(650 1.76859e-10 -1.24545e-17)
(650 -3.55288e-11 -1.1391e-17)
(650 -5.8046e-08 2.15277e-17)
(650 1.25037e-06 0)
(650 4.9948e-11 -3.80218e-18)
(650 -1.78364e-11 1.32375e-17)
(650 -2.21559e-12 0)
(627.776 -42.1703 -1.88279e-17)
(559.083 -189.991 0)
(488.243 -271.354 0)
(409.59 -294.317 -3.91523e-17)
(377.239 -246.036 2.83781e-17)
(386.431 -165.83 -1.8118e-17)
(534.204 -153.444 2.57593e-17)
(580.833 -119.648 1.95582e-17)
(606.118 -66.7604 -1.98155e-17)
(573.278 -47.8622 -1.74503e-17)
(650 9.82711e-08 -1.12041e-26)
(650 3.41521e-07 -3.45391e-26)
(650 -1.41301e-12 -2.26467e-17)
(650 -2.25167e-12 0)
(650 -1.36112e-12 2.38378e-17)
(650 -2.17393e-08 2.09849e-17)
(650 -3.05686e-09 -3.27664e-19)
(650 -1.05694e-12 0)
(650 -1.79876e-06 2.07228e-17)
(650 4.67236e-07 -1.98515e-17)
(537.153 319.006 0)
(542.697 344.026 0)
(577.858 228.108 0)
(650 -3.89677e-12 1.03516e-17)
(650 -0.00482167 2.07693e-17)
(650 -0.000300882 -2.08308e-17)
(650 3.78994e-13 3.50421e-19)
(650 -4.24177e-14 7.24018e-19)
(630.272 -3.89684 -3.22708e-19)
(650 -1.81802e-07 3.38581e-17)
(650.001 -0.0118026 -2.06683e-17)
(650.001 -0.00444787 0)
(650 1.66814e-09 -2.17665e-17)
(650 -8.29456e-09 -1.84616e-27)
(650 5.63737e-07 -2.97258e-17)
(650 -5.75363e-07 -4.16151e-17)
(650 -9.78407e-11 -1.70894e-17)
(650 -1.27097e-12 0)
(650 -2.10106e-06 -2.15296e-17)
(650 -1.20431e-05 1.69017e-19)
(650 0.00216619 0)
(649.997 0.00247445 2.0601e-17)
(650 -0.0115449 0)
(650 -0.000362793 -2.08471e-17)
(650 -7.02012e-06 -2.08906e-17)
(650 -5.78413e-07 -2.09456e-17)
(650 -3.99842e-08 0)
(650 -2.07486e-11 2.10019e-17)
(650 2.5528e-10 0)
(650 1.37916e-10 -2.03495e-20)
(650 3.50066e-10 2.08527e-17)
(650 -4.34997e-11 0)
(650 3.77084e-09 -2.1054e-17)
(650 1.27793e-08 0)
(650 1.68699e-08 -3.4021e-19)
(650 -1.04439e-06 -2.22369e-17)
(650 -1.91072e-06 1.06507e-17)
(604.489 276.38 0)
(650.001 0.00716916 6.65716e-19)
(650 1.05385e-06 1.37314e-25)
(650 1.79553e-06 2.11058e-17)
(650 1.51188e-07 -1.12364e-17)
(650 1.92586e-06 -2.38051e-17)
(650 -1.13359e-07 0)
(650 1.13652e-05 4.30381e-17)
(650 -3.71516e-07 1.17541e-17)
(650 0.000556748 2.16088e-17)
(650 6.8042e-12 9.70433e-18)
(650 -7.52136e-08 -8.19586e-20)
(650.606 -3.55859 -4.04519e-20)
(650.608 -14.6843 0)
(650.022 -5.87141 -2.06105e-17)
(650.95 -5.40579 0)
(650.002 -0.135773 3.09232e-20)
(651.471 -7.65086 -2.15892e-17)
(650.519 -16.2542 0)
(651.152 -14.1523 2.11472e-17)
(651.43 -3.19366 -2.07631e-17)
(645.52 -0.338973 2.01644e-17)
(645.415 3.44853 -2.15943e-17)
(651.574 6.25406 0)
(648.823 2.97506 -2.1394e-17)
(650.337 4.94615 1.30674e-17)
(649.245 1.9213 2.24414e-17)
(643.989 11.0968 -4.19634e-18)
(633.644 73.1116 1.1479e-17)
(604.551 176.792 -1.63227e-17)
(544.382 235.741 1.49909e-17)
(667.523 147.84 1.18214e-17)
(588.958 198.783 -9.71169e-18)
(650 -9.50211e-10 0)
(650 -2.6568e-10 -2.08777e-17)
(649.163 -19.9656 1.37076e-17)
(650 1.91527e-12 -1.05834e-17)
(650 -4.16146e-12 -2.31051e-17)
(649.985 -0.0377476 -1.03337e-17)
(650 6.33184e-08 0)
(650 1.16447e-07 -2.09182e-27)
(650 -1.95904e-12 2.20988e-17)
(650 -2.2961e-12 -2.27184e-17)
(650 -4.48878e-13 0)
(650 -1.90598e-07 8.85364e-18)
(650 -6.73679e-05 0)
(650 1.32214e-06 -3.78847e-17)
(650 1.60725e-09 0)
(650 6.81283e-12 -2.28012e-18)
(650 7.18798e-10 0)
(515.421 -311.03 0)
(594.044 -181.351 1.5862e-17)
(441.533 -346.088 2.61209e-17)
(393.882 -328.935 -1.62272e-17)
(357.913 -232.725 3.85139e-18)
(579.985 -59.5531 1.79123e-17)
(504.074 -182.323 5.64038e-17)
(650 -1.55492e-06 -6.92686e-26)
(550.213 209.034 -1.91812e-17)
(578.088 146.429 3.02565e-17)
(631.579 87.3802 -5.90677e-18)
(650 -1.6463e-07 1.39257e-18)
(566.396 -104.352 0)
(650 1.59493e-09 -1.86054e-17)
(650 -5.82721e-06 4.14868e-17)
(614.093 139.762 -4.61885e-18)
(552.659 170.976 7.54926e-18)
(619.052 132.094 1.34196e-17)
(636.083 45.0512 -1.0504e-17)
(648.588 7.38065 0)
(649.642 3.51003 -1.97882e-17)
(647.245 3.34113 0)
(650.509 4.76679 4.6748e-21)
(645.372 0.960153 1.96099e-17)
(647.214 -6.33079 0)
(650.675 -9.83053 3.81724e-20)