/*--------------------------------*- C++ -*----------------------------------*\
  =========                 |
  \\      /  F ield         | OpenFOAM: The Open Source CFD Toolbox
   \\    /   O peration     | Website:  https://openfoam.org
    \\  /    A nd           | Version:  6
     \\/     M anipulation  |
\*---------------------------------------------------------------------------*/
FoamFile
{
    version     2.0;
    format      ascii;
    class       surfaceScalarField;
    location    "0.0002";
    object      phi;
}
// * * * * * * * * * * * * * * * * * * * * * * * * * * * * * * * * * * * * * //

dimensions      [1 0 -1 0 0 0 0];

internalField   nonuniform List<scalar> 
5786
(
0.150621
-4.46865e-15
0.150621
-5.55112e-17
0.150621
1.63758e-15
0.150621
3.19189e-15
0.150621
2.02616e-15
0.150621
1.36002e-15
0.150621
-2.69229e-15
0.150621
-1.7486e-15
0.150621
-2.72005e-15
0.150621
1.19349e-15
0.150621
1.58207e-15
0.150621
-1.11022e-16
0.150621
2.19269e-15
0.150621
-9.71445e-16
0.150621
-2.77556e-16
0.150621
1.60982e-15
0.150621
1.91513e-15
0.150621
-2.66454e-15
0.150621
-1.80411e-15
0.150621
3.88578e-16
0.150621
-4.41314e-15
0.150621
-3.52496e-15
0.150621
-2.33147e-15
0.150621
-1.66533e-15
0.150621
-4.57967e-15
0.150621
-8.99281e-15
0.150621
-9.15934e-15
0.150621
-4.60743e-15
0.150621
-4.10783e-15
0.150621
-2.22045e-15
0.150621
-3.35842e-15
0.150621
-1.84852e-14
0.150621
-6.88893e-14
0.150621
-2.1283e-13
0.150621
-6.177e-13
0.150621
-1.82124e-12
0.150621
-5.13059e-12
0.150621
-1.38946e-11
0.150621
-3.582e-11
0.150621
-8.77984e-11
0.150621
-2.04416e-10
0.150621
-4.54736e-10
0.150621
-5.53515e-10
0.150621
5.92242e-10
0.150621
5.97143e-09
0.150621
2.26459e-08
0.150621
7.55399e-08
0.150621
2.06226e-07
0.150621
5.24734e-07
1.39831e-06
0.150621
-4.82947e-15
0.150621
-2.05391e-15
0.150621
-3.05311e-16
0.150621
2.83107e-15
0.150621
1.63758e-15
0.150621
8.04912e-16
0.150621
-5.60663e-15
0.150621
-2.22045e-15
0.150621
-6.05072e-15
0.150621
-5.71765e-15
0.150621
6.93889e-16
0.150621
-6.10623e-16
0.150621
4.16334e-16
0.150621
8.32667e-17
0.150621
1.66533e-15
0.150621
2.52576e-15
0.150621
9.71445e-16
0.150621
-5.2458e-15
0.150621
-2.52576e-15
0.150621
-3.08087e-15
0.150621
-5.32907e-15
0.150621
8.32667e-17
0.150621
-1.08247e-15
0.150621
1.58207e-15
0.150621
-3.63598e-15
0.150621
-6.93889e-15
0.150621
-7.21645e-15
0.150621
-4.21885e-15
0.150621
-2.58127e-15
0.150621
-5.71765e-15
0.150621
-4.94049e-15
0.150621
-2.05946e-14
0.150621
-6.61693e-14
0.150621
-2.01367e-13
0.150621
-5.5117e-13
0.150621
-1.62081e-12
0.150621
-4.52588e-12
0.150621
-1.21794e-11
0.150621
-3.11196e-11
0.150621
-7.53363e-11
0.150621
-1.72809e-10
0.150621
-3.74164e-10
0.150621
-2.6088e-10
0.150621
9.75573e-10
0.150621
7.4261e-09
0.150621
2.59042e-08
0.150621
8.26964e-08
0.150621
2.0471e-07
0.150621
4.9946e-07
1.25919e-06
0.150621
-1.58207e-15
0.150621
-3.94129e-15
0.150621
-2.10942e-15
0.150621
3.52496e-15
0.150621
-2.96985e-15
0.150621
-5.82867e-16
0.150621
-5.9952e-15
0.150621
-7.38298e-15
0.150621
-6.52256e-15
0.150621
-5.13478e-15
0.150621
-7.49401e-16
0.150621
1.08247e-15
0.150621
2.9976e-15
0.150621
-9.99201e-16
0.150621
2.58127e-15
0.150621
3.2474e-15
0.150621
7.49401e-16
0.150621
-3.747e-15
0.150621
-1.77636e-15
0.150621
-3.27516e-15
0.150621
-3.58047e-15
0.150621
1.52656e-15
0.150621
4.91274e-15
0.150621
8.13238e-15
0.150621
-3.60822e-16
0.150621
-5.16254e-15
0.150621
-5.07927e-15
0.150621
-2.85882e-15
0.150621
-6.55032e-15
0.150621
-7.68829e-15
0.150621
-1.08247e-14
0.150621
-1.40721e-14
0.150621
-5.98133e-14
0.150621
-1.82687e-13
0.150621
-4.83641e-13
0.150621
-1.40779e-12
0.150621
-3.88697e-12
0.150621
-1.03882e-11
0.150621
-2.63023e-11
0.150621
-6.28213e-11
0.150621
-1.41541e-10
0.150621
-2.77612e-10
0.150621
-7.64192e-11
0.150621
1.23941e-09
0.150621
7.74936e-09
0.150621
2.81539e-08
0.150621
8.87716e-08
0.150621
2.04267e-07
0.150621
4.90682e-07
1.07243e-06
0.150621
-1.66533e-16
0.150621
-4.16334e-16
0.150621
-2.52576e-15
0.150621
2.72005e-15
0.150621
-4.996e-16
0.150621
-1.19349e-15
0.150621
-7.46625e-15
0.150621
-7.96585e-15
0.150621
-1.83187e-15
0.150621
-7.13318e-15
0.150621
-2.19269e-15
0.150621
1.27676e-15
0.150621
-2.19269e-15
0.150621
-3.19189e-15
0.150621
-8.04912e-16
0.150621
1.7486e-15
0.150621
4.44089e-16
0.150621
-3.71925e-15
0.150621
-2.77556e-15
0.150621
-5.32907e-15
0.150621
-3.46945e-15
0.150621
-4.16334e-16
0.150621
6.93889e-16
0.150621
9.79772e-15
0.150621
5.35683e-15
0.150621
-6.68909e-15
0.150621
-4.88498e-15
0.150621
-5.10703e-15
0.150621
-4.30211e-15
0.150621
-7.71605e-15
0.150621
-1.02696e-14
0.150621
-1.44884e-14
0.150621
-5.27078e-14
0.150621
-1.62814e-13
0.150621
-4.17083e-13
0.150621
-1.18314e-12
0.150621
-3.21951e-12
0.150621
-8.53856e-12
0.150621
-2.13913e-11
0.150621
-5.02602e-11
0.150621
-1.10842e-10
0.150621
-1.81511e-10
0.150621
6.22556e-11
0.150621
1.42018e-09
0.150621
7.68447e-09
0.150621
2.90043e-08
0.150621
9.24245e-08
0.150621
2.03213e-07
0.150621
4.96438e-07
8.51243e-07
0.150621
-1.53472e-15
0.150621
-1.69869e-15
0.150621
-6.13355e-15
0.150621
-2.77562e-15
0.150621
1.70012e-16
0.150621
6.00218e-16
0.150621
-5.25278e-15
0.150621
-7.76457e-15
0.150621
-5.38452e-15
0.150621
-2.72009e-15
0.150621
-3.15669e-16
0.150621
2.16844e-15
0.150621
-1.28435e-16
0.150621
-2.56782e-16
0.150621
1.13104e-15
0.150621
-1.2039e-15
0.150621
1.24552e-15
0.150621
-2.44249e-15
0.150621
-4.72017e-15
0.150621
-8.60428e-16
0.150621
-5.79559e-15
0.150621
7.82396e-16
0.150621
6.46699e-15
0.150621
1.37527e-14
0.150621
9.49233e-15
0.150621
-2.0311e-15
0.150621
-3.75389e-15
0.150621
-3.50939e-15
0.150621
-2.53306e-16
0.150621
-6.3471e-15
0.150621
-7.57528e-15
0.150621
-7.61621e-15
0.150621
-3.91379e-14
0.150621
-1.07755e-13
0.150621
-2.54882e-13
0.150621
-7.26733e-13
0.150621
-2.09448e-12
0.150621
-5.80706e-12
0.150621
-1.50893e-11
0.150621
-3.61441e-11
0.150621
-7.92938e-11
0.150621
-1.54762e-10
0.150621
-1.06493e-10
0.150621
8.21754e-10
0.150621
5.87924e-09
0.150621
2.49355e-08
0.150621
8.55638e-08
0.150621
1.88324e-07
0.150621
4.3878e-07
7.1565e-07
0.101843
-0.039037
-0.0617396
-0.0291386
0.125501
-0.0804427
0.0727503
-0.0794852
0.0128901
-0.0925762
0.00692232
-0.106961
0.0256934
-0.102486
0.00118453
-0.237931
0.0831635
-0.202069
0.00193013
-0.199663
0.00152455
-0.294436
0.0528909
-0.307054
0.00816182
-0.177776
-0.163371
-0.0113646
-0.203676
-0.0312739
-0.00746446
0.143868
-0.182555
0.00167173
-0.0284762
0.298653
-0.036739
0.10668
-0.0195183
0.00919816
-0.028835
0.0018561
-0.0713682
0.056604
-0.103927
0.0647791
-0.166078
0.121726
-0.160447
0.0539266
-0.158449
-0.00929829
-0.256794
0.122584
-0.330176
0.049276
-0.131316
-0.41596
-0.000360338
-0.36516
-0.0491442
-0.00904574
-0.00267432
-0.182346
0.00817576
-0.0595217
0.350548
-0.107378
0.183165
-0.0416708
-0.0457037
-0.0573963
0.000692379
-0.104759
0.11929
-0.159927
0.132497
-0.157432
0.120843
-0.14038
0.0647636
-0.15711
0.0127677
-0.197527
0.130464
-0.249764
0.0565935
-0.0594834
-0.65878
0.0113747
-0.460685
-0.0552172
-0.00707379
0.00782982
-0.419499
0.247025
-0.127694
0.494325
-0.0353198
0.117622
-0.0419619
-0.0124774
-0.130607
0.0745838
-0.138335
0.159752
-0.185121
0.196574
-0.15838
0.124582
-0.141362
0.0560059
-0.151831
0.0520628
-0.173048
0.133067
-0.214945
0.0369214
-0.0594423
-0.876761
0.0357251
-0.574164
-0.0324058
-0.00595875
-0.0124818
-0.011216
-0.373274
-0.100899
0.581046
-0.0132803
0.0783795
-0.0712746
0.108422
-0.0993035
0.0791135
-0.13286
0.232809
-0.166726
0.242198
-0.164857
0.168062
-0.150389
0.0463928
-0.144349
0.0746674
-0.169262
0.151434
-0.254773
0.0542406
-0.0721991
-1.14195
0.0918835
-0.787473
-0.0119495
0.0294622
-0.061893
0.000279982
0.0852885
-0.112325
0.241768
-0.130837
0.303253
-0.0493523
0.298574
0.00438724
0.323475
-0.0473694
0.343567
0.0510459
0.16706
0.15113
0.139501
-0.0138306
0.106369
0.0190104
0.116247
-0.00826934
-0.000404277
0.130189
0.00186294
0.00292586
-0.0496415
0.033091
-0.11623
-0.132003
0.076319
0.0736388
-0.267749
0.276863
-0.298805
0.365994
-0.122433
0.336848
0.0518928
0.260812
0.0131256
0.241391
0.123386
0.165938
0.209733
0.0810123
0.0640528
0.0254781
0.0530179
0.0174723
-0.00322208
0.00151321
0.150616
0.00465804
-0.000695627
-0.0426172
0.0736864
-0.15466
-0.00517939
0.0262161
0.0657205
-0.278508
0.188586
-0.386587
0.244363
-0.171372
0.298795
0.016493
0.220077
0.083437
0.217145
0.165654
0.241827
0.20503
0.143157
0.155737
0.0472319
0.132887
0.118484
-0.0769488
0.0352896
0.237086
-0.000556433
0.00930722
0.010249
0.0621056
-0.131412
-0.0264227
0.00334672
0.0517411
-0.321224
0.160434
-0.474091
0.214806
-0.234597
0.254368
-0.011836
0.21544
0.111675
0.228607
0.17598
0.240693
0.221205
0.183043
0.195754
0.126141
0.171355
0.0363519
0.0316074
0.0943168
0.26708
-0.0116622
0.0793066
0.0150835
0.027337
0.13529
-0.167398
0.134528
0.00746667
-0.60498
0.14043
-0.590856
0.262655
-0.369835
0.257412
-0.0383448
0.22303
0.134258
0.244964
0.169189
0.232454
0.257262
0.198407
0.211779
0.0699731
0.260275
0.0793368
0.037372
0.189645
0.229635
-0.00489992
0.313601
0.016884
0.00192829
0.138529
-0.150621
1.70024e-06
-0.150621
7.00507e-07
-0.150621
2.93658e-07
-0.150621
1.07138e-07
-0.150621
3.45038e-08
-0.150621
9.68598e-09
-0.150621
2.2216e-09
-0.150621
8.80109e-11
-0.150621
-3.39835e-10
-0.150621
-1.88531e-10
-0.150621
-8.19135e-11
-0.150621
-3.37717e-11
-0.150621
-1.31997e-11
-0.150621
-4.90225e-12
-0.150621
-1.74996e-12
-0.150621
-5.81341e-13
-0.150621
-1.89682e-13
-0.150621
-5.72042e-14
-0.150621
-1.42664e-14
-0.150621
-7.88258e-15
-0.150621
-2.88658e-15
-0.150621
-3.77476e-15
-0.150621
-4.27436e-15
-0.150621
5.55112e-16
-0.150621
2.91434e-15
-0.150621
-3.05311e-15
-0.150621
2.38698e-15
-0.150621
1.55431e-15
-0.150621
-4.01369e-31
-0.150621
1.77636e-15
-0.150621
2.22045e-15
-0.150621
1.97065e-15
-0.150621
-1.249e-15
-0.150621
2.47025e-15
-0.150621
-2.69229e-15
-0.150621
-2.96985e-15
-0.150621
-6.05072e-15
-0.150621
2.63678e-15
-0.150621
-2.08167e-15
-0.150621
-2.27596e-15
-0.150621
1.66533e-16
-0.150621
2.52576e-15
-0.150621
-1.55431e-15
-0.150621
-3.747e-15
-0.150621
-2.41474e-15
-0.150621
1.41553e-15
-0.150621
2.498e-16
-0.150621
-2.19269e-15
-0.150621
-2.22045e-15
-6.245e-15
-0.150621
1.52354e-06
-0.150621
6.73902e-07
-0.150621
2.9544e-07
-0.150621
1.11253e-07
-0.150621
3.68805e-08
-0.150621
1.0954e-08
-0.150621
2.66238e-09
-0.150621
1.98204e-10
-0.150621
-2.13717e-10
-0.150621
-1.60954e-10
-0.150621
-7.02772e-11
-0.150621
-2.93222e-11
-0.150621
-1.15589e-11
-0.150621
-4.31827e-12
-0.150621
-1.5585e-12
-0.150621
-5.13506e-13
-0.150621
-1.7189e-13
-0.150621
-5.0987e-14
-0.150621
-1.29063e-14
-0.150621
-5.82867e-15
-0.150621
-5.93969e-15
-0.150621
-3.83027e-15
-0.150621
-2.41474e-15
-0.150621
-2.22045e-16
-0.150621
1.77636e-15
-0.150621
-5.27356e-15
-0.150621
1.55431e-15
-0.150621
4.38538e-15
-0.150621
3.44169e-15
-0.150621
1.91513e-15
-0.150621
3.38618e-15
-0.150621
-1.38778e-15
-0.150621
-1.7486e-15
-0.150621
7.49401e-16
-0.150621
9.99201e-16
-0.150621
-2.83107e-15
-0.150621
-4.05231e-15
-0.150621
1.58207e-15
-0.150621
-2.08167e-15
-0.150621
-2.27596e-15
-0.150621
1.11022e-16
-0.150621
5.07927e-15
-0.150621
-2.77556e-15
-0.150621
-8.38218e-15
-0.150621
-2.7478e-15
-0.150621
-2.13718e-15
-0.150621
-2.02616e-15
-0.150621
-2.05391e-15
-0.150621
-1.7486e-15
-3.747e-15
-0.150621
1.29537e-06
-0.150621
6.62881e-07
-0.150621
2.99083e-07
-0.150621
1.15428e-07
-0.150621
3.85156e-08
-0.150621
1.17045e-08
-0.150621
2.74429e-09
-0.150621
2.98516e-10
-0.150621
-1.15543e-10
-0.150621
-1.3168e-10
-0.150621
-5.86124e-11
-0.150621
-2.47788e-11
-0.150621
-9.85498e-12
-0.150621
-3.70701e-12
-0.150621
-1.34992e-12
-0.150621
-4.43784e-13
-0.150621
-1.53544e-13
-0.150621
-4.63518e-14
-0.150621
-1.06581e-14
-0.150621
-4.46865e-15
-0.150621
-6.05072e-15
-0.150621
-1.22125e-15
-0.150621
2.38698e-15
-0.150621
4.10783e-15
-0.150621
2.69229e-15
-0.150621
-2.7478e-15
-0.150621
8.60423e-16
-0.150621
6.66134e-16
-0.150621
4.77396e-15
-0.150621
2.85882e-15
-0.150621
-2.27596e-15
-0.150621
1.94289e-15
-0.150621
1.22125e-15
-0.150621
1.05471e-15
-0.150621
-2.96985e-15
-0.150621
-1.94289e-16
-0.150621
-8.32667e-17
-0.150621
-1.05471e-15
-0.150621
-6.85563e-15
-0.150621
-2.7478e-15
-0.150621
8.32667e-16
-0.150621
5.07927e-15
-0.150621
-4.7462e-15
-0.150621
-7.66054e-15
-0.150621
1.41553e-15
-0.150621
4.71845e-16
-0.150621
-1.11022e-16
-0.150621
-3.85803e-15
-0.150621
-2.80331e-15
-3.16414e-15
-0.150621
1.03038e-06
-0.150621
6.64803e-07
-0.150621
3.03168e-07
-0.150621
1.19401e-07
-0.150621
3.92213e-08
-0.150621
1.18247e-08
-0.150621
2.71625e-09
-0.150621
3.81746e-10
-0.150621
-4.41662e-11
-0.150621
-9.80137e-11
-0.150621
-4.68481e-11
-0.150621
-2.01511e-11
-0.150621
-8.08933e-12
-0.150621
-3.06244e-12
-0.150621
-1.1324e-12
-0.150621
-3.75144e-13
-0.150621
-1.31367e-13
-0.150621
-3.83027e-14
-0.150621
-1.22957e-14
-0.150621
-3.88578e-15
-0.150621
-5.71765e-15
-0.150621
9.15934e-16
-0.150621
5.07927e-15
-0.150621
6.43929e-15
-0.150621
-8.32667e-17
-0.150621
-8.60423e-16
-0.150621
2.05391e-15
-0.150621
2.19269e-15
-0.150621
3.10862e-15
-0.150621
7.74381e-15
-0.150621
-3.44169e-15
-0.150621
-6.32827e-15
-0.150621
-5.55112e-16
-0.150621
-9.99201e-16
-0.150621
-8.10463e-15
-0.150621
2.80331e-15
-0.150621
-1.38778e-16
-0.150621
-3.21965e-15
-0.150621
-8.29892e-15
-0.150621
-6.30052e-15
-0.150621
3.41394e-15
-0.150621
1.22125e-15
-0.150621
-6.77236e-15
-0.150621
-4.71845e-15
-0.150621
5.55112e-16
-0.150621
-1.30451e-15
-0.150621
-5.38458e-15
-0.150621
-5.71765e-15
-0.150621
-5.77316e-15
-1.4988e-15
-0.150621
8.30347e-07
-0.150621
6.15955e-07
-0.150621
3.04619e-07
-0.150621
1.14836e-07
-0.150621
3.38211e-08
-0.150621
9.18009e-09
-0.150621
1.69968e-09
-0.150621
9.22308e-11
-0.150621
-1.18116e-10
-0.150621
-7.5614e-11
-0.150621
-3.40579e-11
-0.150621
-1.43966e-11
-0.150621
-5.53524e-12
-0.150621
-2.00011e-12
-0.150621
-7.06428e-13
-0.150621
-2.14367e-13
-0.150621
-7.91466e-14
-0.150621
-2.25686e-14
-0.150621
-7.13216e-15
-0.150621
-3.6721e-15
-0.150621
-3.83186e-15
-0.150621
1.96543e-15
-0.150621
4.46341e-15
-0.150621
3.55448e-15
-0.150621
1.02487e-16
-0.150621
2.81726e-15
-0.150621
4.96821e-15
-0.150621
6.66478e-15
-0.150621
2.42523e-15
-0.150621
2.38518e-15
-0.150621
-3.39838e-15
-0.150621
-2.48587e-15
-0.150621
1.04106e-17
-0.150621
-6.22069e-15
-0.150621
-7.12625e-15
-0.150621
-1.25942e-15
-0.150621
-8.5348e-16
-0.150621
-3.37221e-15
-0.150621
-8.34408e-15
-0.150621
-5.27357e-15
-0.150621
3.01493e-15
-0.150621
2.10586e-15
-0.150621
-5.81484e-15
-0.150621
-6.9491e-15
-0.150621
1.95647e-15
-0.150621
-4.19096e-15
-0.150621
-5.10684e-15
-0.150621
-5.74005e-15
-0.150621
-3.4819e-15
-2.82639e-15
7.45574
-3.42521e-15
2.5894
4.86634
4.06428
3.39146
4.04997
3.40577
3.91886
3.53688
7.45574
-6.35726
6.35726
6.39537
-6.39537
-6.50148
6.50148
-6.58921
6.58921
6.53891
-6.53891
6.51654
-6.51654
6.50645
-6.50645
6.5301
-6.5301
6.67243
-6.67243
6.74255
-6.74255
6.73524
-6.73524
6.7262
-6.7262
6.71679
-6.71679
6.71046
-6.71046
6.70926
-6.70926
6.71197
-6.71197
6.71943
-6.71943
6.72515
-6.72515
6.71754
-6.71754
6.70519
-6.70519
6.69427
-6.69427
6.63561
-6.63561
6.4654
-6.4654
6.61362
-6.61362
-7.45574
-2.522
-4.93374
-4.08575
-3.36999
-3.9645
-3.49124
-4.1353
-3.32043
-7.45573
1.77079e-09
6.66983
-6.66984
3.44691e-09
6.79068
-6.79068
-6.27924e-10
-6.64684
6.64684
1.2069e-13
-6.69619
6.69619
8.35563e-14
-6.70645
6.70645
7.56504e-16
-6.70564
6.70564
-1.63879e-14
-6.69664
6.69664
-6.24568e-16
-6.69532
6.69532
8.1237e-15
-6.70649
6.70649
-1.89067e-14
-6.71027
6.71027
1.3824e-14
-6.70933
6.70933
9.43516e-15
-6.70327
6.70327
-6.00902e-15
-6.70437
6.70437
6.00903e-15
-6.70455
6.70455
-2.7092e-15
-6.65282
6.65282
-8.9814e-15
-6.37664
6.37664
-2.09384e-10
-5.55389
5.55383
0.000126183
-4.4373
4.43701
0.00723911
-2.17656
1.51812
-0.00834325
-1.44937
1.68892
-0.0763328
-0.973277
0.692985
0.113781
-0.763854
0.17168
0.767768
0.00431231
0.036323
0.00844172
-0.34746
-0.0574854
-0.359635
2.06771
1.26583
-3.33358
0.475112
-0.36666
-0.336555
0.587019
0.784257
-0.737063
1.14322
-0.731485
1.11649
-0.778593
1.11862
-0.818121
1.24537
-1.13314
0.704674
-0.542605
0.760954
-0.40177
0.418208
-0.364925
0.149639
-1.31395
-0.838839
-0.223564
-0.161093
-0.0612472
0.234733
-0.357728
-0.0250587
-1.44686
1.44569
-0.000188574
-1.81253
1.81254
-1.24112e-07
2.28517
-2.28517
1.03403e-09
2.80432
-2.80432
4.01688e-13
-3.55054
3.55054
2.7726e-14
-4.50692
4.50692
1.32605e-15
-5.72963
5.72963
-1.42943e-15
-6.53303
6.53303
-4.50992e-16
1.09848
-9.97774
-0.785902
0.0663495
-4.11511
6.70451
3.34062
7.4049
4.06631
3.38942
7.45777
7.43939
3.40908
4.04666
3.07862
4.37712
6.64291
-6.64291
6.38768
-6.38768
6.57634
-6.57634
-6.56587
6.56587
-6.52339
6.52339
-6.5139
6.5139
-6.50329
6.50329
-6.59554
6.59554
-6.72297
6.72297
-6.74563
6.74563
-6.73434
6.73434
-6.72221
6.72221
-6.71845
6.71845
-6.71287
6.71287
-6.71174
6.71174
-6.72131
6.72131
-6.72169
6.72169
-6.71732
6.71732
-6.71265
6.71265
-6.70677
6.70677
-6.67597
6.67597
-6.55698
6.55698
-6.4767
6.4767
-0.0128781
-6.19075
6.19075
-4.46275
-2.99299
-3.51308
-3.94266
-3.45343
-4.0023
-0.113794
-2.50716
-4.94858
-7.02461
0.35478
-7.02461
8.08062e-11
-1.00143
-0.233937
6.66492
-6.66492
-3.02996e-10
6.67748
-6.67748
9.31059e-13
6.70697
-6.70697
9.87806e-15
6.70945
-6.70945
-8.46545e-15
6.69814
-6.69814
-8.83495e-15
6.69541
-6.69541
8.82622e-15
6.69771
-6.69771
-6.36462e-15
6.7074
-6.7074
-3.09475e-15
6.70485
-6.70485
-4.72713e-15
6.70353
-6.70353
-8.95631e-15
6.69721
-6.69721
1.61658e-14
6.70108
-6.70108
-6.29013e-15
6.69077
-6.69077
-6.13083e-15
6.55285
-6.55285
-2.24471e-13
6.04681
-6.04681
-2.81851e-07
5.02051
-5.02081
0.00266257
3.87401
-3.66666
0.0160643
2.67234
-2.03969
-0.0103297
0.837548
-1.22598
0.000701113
0.559344
-0.864734
0.502536
0.0186462
-0.503293
0.582906
0.254018
0.30082
0.203963
0.724966
0.316915
0.584659
0.636252
0.476586
0.422232
-0.251688
0.412163
0.159837
-0.734591
-1.61609
1.32249
-1.27639
-0.00047909
1.62582
-1.62589
-1.30215e-05
-2.03818
2.03818
1.31118e-08
0.246988
-2.59944
2.59944
2.63554e-11
0.204882
3.07029
-3.07029
2.54911e-14
3.99718
-3.99718
5.02442e-15
5.08862
-5.08862
3.01092e-15
6.40825
-6.40825
-2.73873e-15
0.922704
7.32793
7.45242
6.6155
0.00768167
-0.0748586
0.0233462
0.015514
0.00263587
0.00316304
-0.0654448
-0.0505333
-0.00308773
0.000903726
0.00399146
-0.00165683
-0.00240994
-0.00248525
-0.0093385
-0.00225931
0.00783229
0.00489518
-0.00158152
0.0183004
0.0786241
-0.0112966
0.422868
-7.59883
-7.41793
-6.64246
-0.125761
0.0306363
0.0107845
0.00299736
-0.00749339
-0.00122756
0.00238734
0.000911257
-0.00541482
-0.00579891
-0.00606249
-0.00329107
-0.0137818
-0.0999747
-0.32983
-0.533143
-0.547493
-0.534895
-0.681022
-0.562361
-0.527982
-0.596381
2.66393
1.06808
0.178992
0.225647
0.314271
0.265966
0.446636
0.581706
0.678623
0.00685325
0.00745574
-0.0268105
-0.076892
-0.0195807
0.0103928
0.00813353
0.00542235
0.00798291
0.0036149
-0.000225931
0.00188276
-0.00346428
-0.000225931
0.00745574
0.0125015
0.0403664
0.0915775
-0.136914
-7.83274
-7.43389
-7.32274
-0.00381071
-0.00150621
-9.03726e-05
0.0087812
0.00286933
0.00447344
-0.000256056
0.00716203
0.00347181
-0.0379489
-0.176204
-0.492984
-0.582562
-0.482694
-0.547064
-0.695561
-0.538588
-0.350427
0.247546
0.0269611
-0.285653
-7.92673
-0.000519642
0.0187071
-0.0180745
0.124782
0.641005
0.509739
0.186659
0.173774
0.480255
3.70844
3.69646
4.53098
2.08452
5.4756
3.86599
3.58644
6.22449
-6.2168
-4.16595
-3.76078
-3.78698
-6.53401
6.56097
6.56647
-6.64133
6.552
-6.67776
6.60141
-6.57807
0.0674029
-4.24375
-3.35508
-6.51609
6.51872
6.49267
-6.4895
6.50163
-6.56707
-6.75987
6.70933
6.74473
-6.74782
6.73215
-6.73125
-6.72123
6.72523
6.7195
-6.72116
6.71114
-6.71355
6.71528
-6.71777
6.71604
-6.72538
6.72869
-6.73095
-6.72937
6.7372
-6.71604
6.72093
6.70783
-6.70941
6.71543
-6.69713
-6.60684
6.68546
-6.35379
6.3425
-4.34112
-3.49162
-8.50707
-7.73536
-6.63335
6.62047
-0.0668757
0.0423998
6.71787
-6.71839
-5.73448
-3.73036
-3.68757
-2.14484
-4.49762
6.71163
-6.71544
-6.52038
6.40659
-0.295895
-0.234743
-2.3167
1.20789
-7.6355
7.76028
-6.70861
6.7194
0.00926319
-6.71449
6.71749
-0.0028618
-6.70471
6.72342
0.0146855
-6.70689
6.70539
6.70488
-6.70497
-6.70345
6.71223
-6.71774
6.72061
-6.70723
6.71171
-6.71156
6.7113
-6.6969
6.70406
-6.70259
6.70607
-6.71223
6.67428
-6.60907
6.43286
5.43321
-5.9262
-4.98501
4.40301
2.83017
-2.45813
2.49453
-3.094
-1.60952
1.12807
0.662991
-0.977729
-1.02911
0.65373
0.368634
6.40342
-6.15588
0.186619
0.839753
-0.582266
-0.494817
0.772817
-1.19374
0.864666
-0.500485
0.457605
0.364338
2.49324
-2.24625
1.73945
-1.56052
3.75158
-3.27132
-2.01089
2.23654
0.482349
-1.34352
1.51187
0.394893
-3.09661
3.36257
0.654968
-2.84701
3.0519
0.51556
5.30295
-4.72124
-1.78658
1.97322
0.449963
6.65397
-5.97535
-4.20914
4.71888
1.09381
6.51985
-6.513
0.00376552
-5.26834
5.90934
1.38564
5.78904
1.05062
-0.597108
-0.678005
1.08283
1.55917
-1.57949
2.5253
-2.44044
4.33386
-4.43828
4.12149
-3.38765
-1.53771
0.825943
0.356359
-1.97661
-1.065
-0.948637
-6.90077
6.66683
-0.348763
3.60037
3.72757
7.46636
8.25855
-6.6698
6.70043
0.0536211
7.56012
-7.54776
-7.87932
0.723662
-0.348931
0.254662
0.400284
-1.84646
6.7308
0.00135559
6.73893
3.68735
3.75204
7.27379
0.329
-7.52454
6.73976
0.00497049
6.75015
6.51044
0.0505333
6.52595
-0.857711
-0.000903726
1.1881
7.27446
-6.50795
6.51541
-6.49349
6.46668
-6.68117
6.60428
6.7488
-6.76838
0.0189029
0.017698
-6.72681
6.73223
-6.71905
6.72703
-6.71408
6.71769
-6.71122
6.71099
-6.72809
6.72997
6.72289
-6.72635
6.71913
-6.71935
-6.71476
6.72221
-6.71024
6.72274
6.70956
-6.66919
6.57543
-6.48386
6.37345
-6.51036
-7.1249
-0.382328
-0.17954
3.67138
-7.40174
-3.65136
-3.9669
-3.46699
-8.14897
-7.32199
0.0107694
-7.15457
-0.000828415
1.78493
6.59025
-6.60833
-6.69575
-0.0111459
-6.69698
6.71047
-6.71797
0.0079076
-0.00497049
6.70482
-6.70244
6.71595
-6.71504
6.71571
-6.72112
6.71529
-6.72109
6.70508
-6.71114
6.71031
-6.7136
6.70177
-6.71555
6.60393
-6.7039
6.33973
-0.906512
6.0099
4.89059
-5.4236
-4.48632
3.971
-3.18736
3.12983
-2.41347
1.93811
-0.682272
0.541373
-1.53491
0.00308773
-0.0064767
0.369281
4.85805
1.11859
0.412629
-0.0875108
0.0129534
3.8934
3.56437
7.60184
7.31641
2.52515
0.526752
-0.00158152
2.83942
-3.74248
4.18911
8.55452
0.9764
0.292956
0.340447
1.03544
1.93256
-0.240696
2.05927
-1.14164
2.39885
-0.751447
-1.0756
-0.878331
-0.818725
0.221639
-0.487934
0.917794
0.59316
-0.657263
-1.13222
-0.864874
-1.01252
-1.03559
-0.59917
-0.108296
-0.000828415
0.0134053
-0.0064767
0.00805822
0.102723
-0.00203338
0.0125015
-0.000150621
-0.167867
0.201606
0.0462406
-0.00240994
0.00617546
0.0178486
0.00233462
-0.0120497
0.00406677
-0.00293711
0.000451863
-0.000979036
0.0256056
-0.0143843
0.0128028
-7.53105e-05
0.000979036
-0.155591
-0.100389
0.0259068
-0.0590434
0.0134806
0.0110706
-0.271042
-0.0412701
-0.00753105
-0.00707918
-0.00979036
-0.00941381
0.0921047
-0.0125768
0.00557297
0.00979036
-1.02054
-0.944347
6.72974
-6.74232
6.78608
-6.73245
-6.7494
6.7671
-6.7381
6.75158
-6.50728
6.51805
-6.84519
6.78615
-5.56318
7.34812
2.99133
-4.22492
-3.17682
-6.47331
6.37292
6.69759
-6.85318
-0.147609
-6.75414
6.77305
-6.49312
6.54365
3.0122
-2.41904
6.58131
-6.85235
-6.75362
6.75264
-6.74955
6.76062
6.75746
-6.75701
0.0193548
-6.73261
6.74541
-6.73554
6.73961
-6.7384
6.76401
6.75068
-6.76273
-0.00293711
-0.952349
1.62626
6.75475
-6.76122
6.74684
-6.74691
0.0112966
6.75189
-6.74571
0.0192795
6.73908
-6.75347
-0.0236475
6.74232
-6.74473
0.00391614
6.74383
-6.74586
0.98565
-1.70018
-6.58733
6.78894
1.46384
-2.56441
-6.0814
5.91353
-3.21244
-4.10954
1.06404
-0.990479
6.43784
-6.43867
-0.0354712
-2.00145
-6.14752
-6.22637
-7.00523
6.76514
-6.76378
0.0157399
6.77192
-6.76695
0.0177733
-6.74398
6.73901
-0.0142337
-3.89061
-3.26396
-7.10306
-6.44078
6.60428
-6.53687
0.111158
-6.74827
6.75384
-0.00444332
-6.74887
6.74601
-0.00986567
-6.72199
6.72989
4.36386
-5.38439
-6.74066
6.75045
-6.73374
6.74624
0.0201079
-6.67605
6.76815
0.110029
6.80167
-6.69894
0.214334
-6.73547
6.74353
6.7378
-6.74428
-6.72394
6.73735
-6.73615
6.73532
-6.96614
6.36697
-6.78246
6.67416
-0.201154
1.25369
-1.15688
-6.1799
5.14431
-1.81604
6.58176
-6.36012
0.500363
3.89125
-4.90318
3.53377
-4.28909
-3.20638
1.7916
6.74993
-6.74684
0.00421739
-5.70198
5.8886
-6.75158
6.75068
-0.00557297
-4.92463
6.11273
0.420909
6.75196
-6.75354
0.00240994
-5.41776
6.53635
2.84079
0.834365
1.80424
-1.4094
3.8207
-3.16574
1.86914
-1.3699
-3.06316
3.57872
0.757548
-2.77802
3.30477
0.800701
-6.48762
6.40011
0.280532
6.53898
-6.53522
0.0317057
6.70866
-5.32302
1.78403
2.0251
1.46941
-1.14834
0.49333
0.653483
4.93073
-3.95433
-2.58558
3.3487
1.45539
-1.07627
0.476583
-1.41856
4.31324
-3.39545
1.14751
1.53528
-6.81688
5.91037
-1.67257
6.46623
-6.815
-0.538997
-0.414885
-6.66385
5.9124
-0.750318
-2.59467
1.29272
-1.76037
3.45182
-1.64816
0.63116
-0.486636
5.55791
-4.4641
1.60359
1.64862
2.06218
-1.61221
2.3889
-1.90655
6.49726
-6.6768
-0.355917
2.12469
-2.57537
-1.38912
-1.23895
-6.74835
6.75761
0.00233462
-2.20979
0.705473
-0.864851
3.58621
3.68758
-0.947365
0.428818
-0.0138571
4.47736
3.12448
-1.11204
6.75678
-0.00203338
6.77463
3.21531
4.25105
6.80151
7.09184
0.00926319
-6.49877
6.52467
0.0192795
0.0036149
-0.303878
0.000677794
-6.80453
6.80551
6.74624
-6.74917
-1.05578
1.54956
0.512609
-0.0183758
0.786782
-6.7668
6.76913
-0.000677794
-6.725
6.77124
-1.49311
-0.485376
6.69103
-6.75791
0.0135559
0.0860046
0.00557297
6.47587
0.0677794
6.48883
-6.73313
0.0111459
-6.73328
6.73532
-6.74646
6.77719
-6.7625
0.00240994
0.0171708
-0.00700387
-6.74322
0.00775698
-6.75301
6.74804
-6.75746
-0.0152127
0.002184
6.73547
-6.74255
6.73705
-6.74458
-6.75874
6.71747
-0.0845737
-0.556047
0.0447344
-1.36468
3.7446
-1.50656
2.78377
0.0277896
-1.17871
0.45026
6.50389
-0.615287
6.20799
-0.910595
-1.09398
1.82058
0.839188
-6.61279
6.65519
0.0782476
0.118313
1.6693
-1.42288
0.779239
0.659905
1.00532
1.96227
0.552718
1.39319
-0.0141584
0.235142
-1.28655
-1.19679
-0.800914
0.776688
6.55969
-6.79444
-0.198217
-4.71444
-3.02093
-7.30911
-7.13047
-1.12841
-0.018677
0.013104
-0.00881133
-2.39794
0.0390108
0.038559
0.0079076
0.0722981
-0.00489518
-0.0463913
-0.0165683
-0.0139324
-0.00926319
-0.00519642
-1.82044
0.864649
6.81748
-6.82238
-6.78721
6.82622
-6.81432
6.82223
-6.78404
6.79534
-6.81424
6.81131
6.7909
-6.80483
-6.82102
6.85958
6.80347
-6.7979
7.46869
2.31725
-1.54057
-6.79331
6.80905
-6.49598
6.51526
-7.49738
1.27101
-8.03638
-6.79745
6.8168
6.7796
-6.79617
6.81319
-6.80392
0.019882
-6.51149
6.20762
-6.77169
6.78886
0.031781
6.45712
-7.5129
-1.79876
2.31135
0.518494
6.86756
-6.88594
0.0465419
6.80061
-6.80129
0.0165683
-6.78472
6.804
6.7851
-6.80874
-0.0291452
6.80061
-6.79669
0.0134053
-3.39633
1.27912
-6.55804
6.98685
-5.31898
3.82592
6.7805
-6.78977
-6.42323
6.37684
2.93109
-4.13782
-6.78239
6.77538
-0.00278649
6.87472
-7.02232
-0.0112213
6.79391
-6.79323
-0.00278649
6.81643
-6.79865
0.0125015
-6.80272
6.78849
-0.0273377
6.61964
-7.10502
6.80242
-6.80686
-0.988028
1.75203
-6.8037
6.79383
-0.0152127
3.49802
-4.82877
-1.81999
-1.43825
6.79941
-6.797
-0.00188276
6.80069
-6.79707
0.00323835
6.7857
-6.79956
-0.023045
0.684414
-1.35482
-6.79835
6.80054
-0.00745574
6.47181
-6.40403
0.0485753
6.91516
-6.80513
6.97044
-6.7561
0.4124
6.78992
-6.80513
6.786
-6.7912
-6.78118
6.79428
-0.000677794
6.74978
-6.83435
-6.80182
6.82961
-6.79978
6.78111
-0.0500062
2.73062
-1.54737
-6.79052
6.79828
-0.000602484
-6.80212
6.84685
0.0153633
4.04711
3.2693
7.17159
6.95688
6.8159
-6.81349
0.0188276
3.79136
-2.99065
-6.70941
6.98994
0.205748
6.49252
-6.46081
-0.00346428
-6.77854
6.78969
0.0103175
6.81409
-6.81612
0.0122756
3.28213
-1.64991
6.69405
-7.04996
-0.328278
6.8031
-6.81725
-0.0112213
-6.80792
6.80234
-0.0140831
6.79918
-6.79496
0.0144596
-6.80603
6.80837
-0.00369021
1.7578
-2.43051
-6.35161
4.53557
6.70406
-6.90522
-0.130287
-0.285577
-1.50091
2.05351
0.810496
-6.78894
6.80905
0.0134806
6.22283
-6.2583
-0.288665
6.58884
-6.47768
0.184812
0.114959
-0.0140077
-4.81189
6.59592
1.6743
-3.21487
0.0609262
-2.87571
1.03303
2.75832
-0.647896
0.0107694
-0.0064767
-5.16976
0.0198067
-3.27747
2.05647
-0.00594953
-2.52568
-0.0330314
-1.15753
-6.69985
6.77809
-0.842348
0.00610015
0.0111459
-5.64603
-1.86687
-7.3186
6.86206
-6.78977
-0.00655201
3.57815
3.22336
-1.06846
1.53483
2.10922
-3.64405
0.041722
1.73052
-0.0839712
-4.13289
5.73647
0.743677
1.31003
1.10565
-6.80588
6.81944
0.0346428
-0.00421739
0.558583
-1.66966
1.01009
0.897487
-0.806681
-6.50155
6.58756
-0.00632608
0.105962
-6.78216
-0.0229697
-6.79097
0.0364503
-0.00497049
-1.26437
1.72427
-0.87285
0.00308773
2.01131
1.20453
6.60751
-6.10715
2.67645
-3.70255
-0.0086607
-0.586443
5.77654
-6.39183
-3.82284
-3.28022
2.0243
6.62205
-6.50374
0.14437
2.88206
4.07482
6.46021
-3.94853
0.957874
-3.19098
-5.46212
4.7118
1.1454
-2.59731
0.0137065
6.96057
-4.93547
2.14868
2.53322
6.24557
-4.59695
2.11268
1.99897
0.879702
-1.97993
0.126475
5.64173
-6.05662
-2.39465
0.933323
6.86161
-7.05983
0.161767
-1.61305
1.01238
-2.33125
-1.70209
-1.70244
-3.42821
4.96349
2.30827
-2.78302
-3.66182
-3.46865
-6.25913
-7.29148
0.00316304
-1.79312
0.00594953
-1.69435
0.329257
-1.84679
-3.82344
0.632457
-2.67593
4.45296
2.71863
6.98618
6.79346
-0.898454
2.57275
-6.83322
6.89415
4.33766
-3.30462
6.7665
-7.41439
-6.8778
6.87185
0.274356
-7.37568
7.0474
-6.85724
6.87607
-0.463813
-2.31259
0.617722
-1.56869
6.57747
-7.41981
-0.798216
6.84459
-6.86756
6.92329
-6.87675
0.0900713
-6.85122
6.86779
-6.85521
6.85461
-0.0106188
-3.34675
0.560948
-6.85868
6.85212
-0.00406677
6.83465
-6.84113
-1.48902
0.744589
4.50183
-2.96701
3.60337
1.37065
-6.84745
6.86086
6.91561
-6.87389
0.885726
-6.51594
6.84519
1.96141
6.82825
-6.87826
-4.69036
2.93917
-6.85077
6.88541
-1.50938
2.69347
3.49289
-6.01856
-6.84738
6.86726
-7.00651
6.99529
0.0408936
0.118539
6.84888
-6.85167
0.0014309
6.86041
-6.84791
0.0130287
6.86184
-6.87585
6.83638
-6.86372
6.85446
-6.84369
0.00278649
-6.85295
6.87276
2.28259
-4.0701
0.536338
-1.40146
-0.990085
-0.847793
6.87118
-6.86003
-6.86252
6.85506
-0.0103928
6.85898
-6.85574
0.00602484
6.83608
-6.85913
6.84218
-6.84286