/*--------------------------------*- C++ -*----------------------------------*\
  =========                 |
  \\      /  F ield         | OpenFOAM: The Open Source CFD Toolbox
   \\    /   O peration     | Website:  https://openfoam.org
    \\  /    A nd           | Version:  6
     \\/     M anipulation  |
\*---------------------------------------------------------------------------*/
FoamFile
{
    version     2.0;
    format      ascii;
    class       volVectorField;
    location    "0.0002";
    object      U;
}
// * * * * * * * * * * * * * * * * * * * * * * * * * * * * * * * * * * * * * //

dimensions      [0 1 -1 0 0 0 0];

internalField   nonuniform List<vector> 
3704
(
(650 -4.94692e-13 0)
(650 -9.93675e-14 0)
(650 1.8158e-13 0)
(650 2.28253e-13 0)
(650 1.81985e-13 0)
(650 1.02898e-13 0)
(650 -8.52575e-14 0)
(650 3.63685e-14 0)
(650 -2.88487e-14 0)
(650 2.10677e-13 0)
(650 3.10658e-13 0)
(650 4.43017e-14 0)
(650 -1.74037e-14 0)
(650 -7.13729e-14 0)
(650 4.53533e-14 0)
(650 6.07281e-14 0)
(650 1.15051e-13 0)
(650 -1.79078e-14 0)
(650 -7.91562e-14 0)
(650 -3.337e-14 0)
(650 -1.51822e-13 0)
(650 -2.16064e-13 0)
(650 -2.6521e-13 0)
(650 -3.5684e-13 0)
(650 -6.24744e-13 0)
(650 -9.04532e-13 0)
(650 -7.94876e-13 0)
(650 -5.3255e-13 0)
(650 -4.30147e-13 0)
(650 -1.59556e-13 0)
(650 -4.03e-13 0)
(650 -1.70667e-12 0)
(650 -5.82154e-12 0)
(650 -1.79624e-11 0)
(650 -5.34204e-11 0)
(650 -1.60181e-10 0)
(650 -4.58948e-10 0)
(650 -1.26214e-09 0)
(650 -3.30793e-09 0)
(650 -8.25643e-09 0)
(650 -1.9613e-08 0)
(650 -4.44332e-08 0)
(650 -7.3159e-08 0)
(650 -8.27896e-09 0)
(650 2.80988e-07 0)
(650 1.61393e-06 0)
(650 5.95354e-06 0)
(650 1.74912e-05 0)
(650 4.65019e-05 0)
(650 0.000127675 0)
(650 -3.86163e-13 0)
(650 -7.73109e-14 0)
(650 6.86956e-14 0)
(650 2.81386e-13 0)
(650 1.546e-13 0)
(650 8.99732e-14 0)
(650 -3.60691e-13 0)
(650 -1.92172e-13 0)
(650 -4.11682e-13 0)
(650 -1.81108e-13 0)
(650 6.34226e-14 0)
(650 -3.55674e-14 0)
(650 1.32845e-13 0)
(650 -6.48805e-14 0)
(650 6.12517e-14 0)
(650 1.77652e-13 0)
(650 1.20389e-13 0)
(650 -3.69054e-13 0)
(650 -1.99182e-13 0)
(650 -1.18989e-13 0)
(650 -4.34086e-13 0)
(650 -1.61601e-13 0)
(650 -1.32454e-13 0)
(650 -1.49779e-14 0)
(650 -3.70227e-13 0)
(650 -6.61042e-13 0)
(650 -7.22039e-13 0)
(650 -3.5303e-13 0)
(650 -2.73205e-13 0)
(650 -3.23741e-13 0)
(650 -3.44953e-13 0)
(650 -1.65238e-12 0)
(650 -5.85288e-12 0)
(650 -1.79108e-11 0)
(650 -5.06184e-11 0)
(650 -1.49551e-10 0)
(650 -4.19808e-10 0)
(650 -1.13468e-09 0)
(650 -2.91581e-09 0)
(650 -7.11378e-09 0)
(650 -1.647e-08 0)
(650 -3.63282e-08 0)
(650 -3.61125e-08 0)
(650 6.64843e-08 0)
(650 5.99613e-07 0)
(650 2.11155e-06 0)
(650 6.84527e-06 0)
(650 1.77488e-05 0)
(650 4.41404e-05 0)
(650 0.000115706 0)
(650 -2.59508e-13 0)
(650 -2.52018e-13 0)
(650 -1.01478e-13 0)
(650 2.86598e-13 0)
(650 -4.93157e-14 0)
(650 -3.45098e-15 0)
(650 -5.24821e-13 0)
(650 -4.29863e-13 0)
(650 -5.57963e-13 0)
(650 -5.04283e-13 0)
(650 -2.07728e-14 0)
(650 1.63065e-14 0)
(650 1.67446e-13 0)
(650 -4.96325e-14 0)
(650 1.79173e-13 0)
(650 2.45398e-13 0)
(650 7.27307e-14 0)
(650 -4.26467e-13 0)
(650 -1.92414e-13 0)
(650 -2.76899e-13 0)
(650 -3.95104e-13 0)
(650 6.46208e-14 0)
(650 1.56546e-13 0)
(650 4.32374e-13 0)
(650 -1.62912e-13 0)
(650 -5.27179e-13 0)
(650 -5.36179e-13 0)
(650 -2.93643e-13 0)
(650 -3.99532e-13 0)
(650 -5.7824e-13 0)
(650 -6.64918e-13 0)
(650 -1.51657e-12 0)
(650 -5.48912e-12 0)
(650 -1.67409e-11 0)
(650 -4.51156e-11 0)
(650 -1.31883e-10 0)
(650 -3.65543e-10 0)
(650 -9.78785e-10 0)
(650 -2.48561e-09 0)
(650 -5.96868e-09 0)
(650 -1.35525e-08 0)
(650 -2.80233e-08 0)
(650 -1.30175e-08 0)
(650 1.01528e-07 0)
(650 6.81408e-07 0)
(650 2.37847e-06 0)
(650 7.47616e-06 0)
(650 1.77049e-05 0)
(650 4.27008e-05 0)
(650 0.000100542 0)
(650 -7.28069e-14 0)
(650 -2.01297e-13 0)
(650 -2.31626e-13 0)
(650 2.42559e-13 0)
(650 -1.52806e-13 0)
(650 -6.71678e-14 0)
(650 -5.92467e-13 0)
(650 -6.68015e-13 0)
(650 -4.26287e-13 0)
(650 -5.19495e-13 0)
(650 -1.2767e-13 0)
(650 9.75854e-14 0)
(650 4.42085e-14 0)
(650 -1.6879e-13 0)
(650 7.78233e-14 0)
(650 2.21081e-13 0)
(650 5.60384e-14 0)
(650 -3.32636e-13 0)
(650 -2.0427e-13 0)
(650 -3.64048e-13 0)
(650 -3.28648e-13 0)
(650 6.18303e-14 0)
(650 2.64351e-13 0)
(650 8.25204e-13 0)
(650 2.40802e-13 0)
(650 -4.77959e-13 0)
(650 -4.30213e-13 0)
(650 -3.14578e-13 0)
(650 -4.53245e-13 0)
(650 -6.61986e-13 0)
(650 -9.03683e-13 0)
(650 -1.24441e-12 0)
(650 -4.81466e-12 0)
(650 -1.47464e-11 0)
(650 -3.82596e-11 0)
(650 -1.10124e-10 0)
(650 -3.02514e-10 0)
(650 -8.07066e-10 0)
(650 -2.03727e-09 0)
(650 -4.83806e-09 0)
(650 -1.08173e-08 0)
(650 -1.9897e-08 0)
(650 -1.40265e-09 0)
(650 1.11628e-07 0)
(650 6.59339e-07 0)
(650 2.45361e-06 0)
(650 7.8028e-06 0)
(650 1.7441e-05 0)
(650 4.20589e-05 0)
(650 8.22987e-05 0)
(650 -8.10555e-14 0)
(650 -1.05445e-13 0)
(650 -3.63859e-13 0)
(650 2.05917e-14 0)
(650 -3.30604e-14 0)
(650 -4.21644e-14 0)
(650 -5.71257e-13 0)
(650 -7.08002e-13 0)
(650 -3.1788e-13 0)
(650 -4.69919e-13 0)
(650 -1.1551e-13 0)
(650 1.44657e-13 0)
(650 -1.23962e-13 0)
(650 -1.53548e-13 0)
(650 4.23564e-14 0)
(650 6.45473e-14 0)
(650 7.93387e-14 0)
(650 -2.92211e-13 0)
(650 -3.41787e-13 0)
(650 -3.13521e-13 0)
(650 -4.00637e-13 0)
(650 2.38658e-14 0)
(650 3.35285e-13 0)
(650 1.03051e-12 0)
(650 6.47467e-13 0)
(650 -3.97579e-13 0)
(650 -3.55321e-13 0)
(650 -3.77466e-13 0)
(650 -2.25563e-13 0)
(650 -6.39567e-13 0)
(650 -7.9424e-13 0)
(650 -9.65991e-13 0)
(650 -4.05559e-12 0)
(650 -1.20981e-11 0)
(650 -3.01106e-11 0)
(650 -8.51807e-11 0)
(650 -2.35283e-10 0)
(650 -6.31221e-10 0)
(650 -1.59484e-09 0)
(650 -3.75327e-09 0)
(650 -8.20853e-09 0)
(650 -1.41684e-08 0)
(650 1.9473e-09 0)
(650 1.06503e-07 0)
(650 6.09217e-07 0)
(650 2.39256e-06 0)
(650 7.83683e-06 0)
(650 1.70752e-05 0)
(650 4.08558e-05 0)
(650 6.69932e-05 0)
(-195.091 198.02 1.98906e-19)
(412.931 8.21811 1.9781e-20)
(607.691 117.722 -1.25894e-19)
(623.226 76.969 2.75623e-17)
(656.79 74.4431 -1.05982e-18)
(571.835 32.3311 2.23122e-17)
(499.835 45.3519 0)
(446.415 -187.574 -2.15875e-18)
(403.226 -222.081 6.77871e-19)
(376.169 -239.674 7.33158e-17)
(303.711 -270.472 2.97317e-18)
(213.202 -241.938 -9.42031e-17)
(168.125 -144.365 -9.59114e-17)
(108.751 7.89661 0)
(14.4112 -20.1823 1.5613e-17)
(-140.222 238.751 0)
(435.255 28.43 -2.55798e-18)
(582.898 118.253 0)
(534.3 192.2 -4.37575e-17)
(542.974 349.891 -1.00165e-16)
(590.988 165.69 -3.74473e-17)
(537.626 51.9056 -2.29073e-17)
(475.559 -114.859 1.02837e-18)
(453.127 -151.41 2.76057e-17)
(406.755 -188.669 -3.83268e-17)
(295.001 -279.421 -7.12496e-17)
(210.291 -255.646 -2.13245e-18)
(207.525 -122.808 7.62282e-17)
(110.789 50.8625 0)
(17.9905 -33.7807 1.22734e-17)
(-41.06 256.122 0)
(428.7 52.642 2.36331e-18)
(547.749 186.553 -2.4983e-17)
(387.969 552.209 0)
(550.101 464.818 8.54896e-17)
(635.146 155.674 4.37532e-17)
(571 5.09167 1.92914e-17)
(500.161 -90.4767 1.60731e-18)
(461.586 -132.778 -2.84399e-17)
(391.131 -182.705 -7.0169e-17)
(272.202 -280.82 1.41454e-16)
(216.611 -261.378 7.40942e-17)
(258.43 -128.806 6.82467e-17)
(114.962 77.0472 3.87664e-17)
(15.15 -50.1401 -5.30303e-18)
(28.2324 284.554 0)
(390.542 73.3431 -8.27989e-18)
(410.853 314.284 2.26739e-17)
(425.374 412.727 6.00847e-19)
(665.975 292.215 -2.30365e-18)
(670.746 126.101 -7.8903e-17)
(589.183 -47.5122 2.01274e-17)
(505.273 -104.451 1.6913e-18)
(455.661 -137.719 -5.59137e-17)
(367.755 -195.742 6.12463e-17)
(257.039 -273.479 -1.33492e-16)
(218.347 -264.132 5.91762e-19)
(307.714 -142.949 7.15738e-19)
(107.482 102.174 1.59961e-18)
(-0.990579 -69.7647 -4.87882e-18)
(99.9368 309.455 0)
(318.906 149.506 1.40191e-17)
(323.583 353.042 5.30823e-19)
(517.756 301.249 0)
(676.066 271.977 -3.79151e-17)
(701.771 97.105 7.57961e-17)
(605.764 -76.6155 -1.95787e-17)
(517.123 -130.275 -1.11647e-18)
(444.202 -149.022 7.65876e-17)
(344.554 -202.904 8.79445e-19)
(240.411 -268.741 6.44059e-17)
(218.202 -261.719 -1.41316e-16)
(352.627 -156.932 -5.94025e-17)
(86.2855 122.608 -1.07179e-16)
(-31.7469 -94.0519 8.4032e-18)
(-5.56061 -20.4866 0)
(77.6305 16.5176 -1.8962e-18)
(140.54 116.215 -1.22165e-18)
(213.41 188.432 1.0901e-16)
(316.117 231.644 0)
(432.967 203.265 1.00537e-16)
(469.944 199.182 3.24507e-17)
(504.078 189.455 -8.98128e-19)
(539.398 -81.0011 -7.06834e-19)
(572.785 -43.096 2.71302e-19)
(626.573 -41.546 2.86113e-18)
(625.934 -24.5543 2.16303e-17)
(333.279 -144.47 -9.24866e-19)
(74.6793 39.5 0)
(-199.227 160.163 -8.27484e-18)
(-14.1452 -5.88567 0)
(85.1313 -5.71289 0)
(149.702 100.025 -8.99724e-17)
(217.251 186.557 -9.06977e-17)
(304.716 242.659 -1.15517e-18)
(440.189 197.255 5.0727e-18)
(505.356 176.987 3.45329e-17)
(529.964 138.248 -2.31538e-19)
(571.929 -85.4702 2.6202e-17)
(561.603 -152.577 5.75117e-17)
(497.078 -401.01 0)
(592.933 -57.8763 -1.23382e-17)
(224.027 -225.486 8.01729e-17)
(64.3399 43.7452 2.32861e-19)
(-135.709 187.323 0)
(-12.4176 15.3111 0)
(86.3583 -17.0375 -1.4355e-18)
(168.301 92.9693 1.32374e-18)
(234.236 186.44 -8.083e-17)
(312.428 239.243 0)
(424.096 222.798 -7.10557e-17)
(501.135 186.853 -9.744e-17)
(537.643 133.183 0)
(594.093 -8.08392 -2.27476e-17)
(634.136 -208.95 9.29826e-18)
(502.021 -500.282 -1.31705e-18)
(532.498 -196.455 4.25277e-19)
(266.214 -299.051 -5.72078e-17)
(89.7849 18.9792 0)
(-83.2463 211.52 0)
(-14.1047 44.3617 0)
(85.4493 -36.7447 0)
(192.818 83.5917 7.71832e-17)
(249.746 184.785 7.63418e-17)
(324.386 235.388 7.57407e-17)
(418.845 230.8 -2.98682e-19)
(489.032 189.425 5.87907e-17)
(543.057 132.673 -9.39871e-19)
(603.119 29.4399 2.52332e-17)
(680.065 -160.28 -3.84131e-17)
(583.708 -331.665 2.76292e-18)
(511.909 -231.987 -9.15007e-19)
(309.759 -292.124 2.22662e-17)
(136.642 -38.3041 6.57066e-19)
(-17.8395 234.079 -5.52559e-18)
(-42.0883 78.2502 0)
(95.9381 -82.9441 -1.43073e-18)
(220.752 74.1979 -7.28885e-19)
(259.459 184.494 -7.32328e-17)
(332.064 236.594 -7.06978e-17)
(415.649 234.04 -1.21781e-18)
(470.38 185.406 3.11992e-17)
(543.252 142.04 8.05432e-19)
(608.649 48.4691 -2.3127e-17)
(708.49 -119.137 3.80735e-17)
(612.409 -285.331 4.9534e-17)
(529.985 -218.691 -9.04398e-19)
(384.455 -284.564 -2.50948e-17)
(199.833 -176.265 0)
(41.066 232.997 6.69006e-18)
(650 -0.00015574 0)
(650 -6.18625e-05 0)
(650 -2.49321e-05 0)
(650 -8.76546e-06 0)
(650 -2.6858e-06 0)
(650 -6.77742e-07 0)
(650 -9.71009e-08 0)
(650 1.9976e-08 0)
(650 3.69192e-08 0)
(650 1.81274e-08 0)
(650 7.72938e-09 0)
(650 3.12712e-09 0)
(650 1.20191e-09 0)
(650 4.39464e-10 0)
(650 1.54132e-10 0)
(650 5.0708e-11 0)
(650 1.6199e-11 0)
(650 4.72536e-12 0)
(650 1.04938e-12 0)
(650 3.9931e-13 0)
(650 1.93285e-13 0)
(650 5.09968e-13 0)
(650 5.83184e-13 0)
(650 2.09035e-13 0)
(650 -8.10241e-14 0)
(650 8.74342e-14 0)
(650 -1.42266e-13 0)
(650 -1.98934e-13 0)
(650 -2.4389e-14 0)
(650 -6.35962e-14 0)
(650 -1.3771e-13 0)
(650 -1.28103e-13 0)
(650 1.49544e-13 0)
(650 -6.29656e-14 0)
(650 7.63626e-14 0)
(650 1.35851e-13 0)
(650 3.20895e-13 0)
(650 -5.50068e-14 0)
(650 1.04323e-13 0)
(650 2.70581e-14 0)
(650 4.68279e-14 0)
(650 -3.92631e-14 0)
(650 1.07184e-13 0)
(650 2.835e-13 0)
(650 1.57321e-13 0)
(650 -5.31916e-14 0)
(650 9.33826e-15 0)
(650 9.38751e-14 0)
(650 1.47286e-13 0)
(650 6.44023e-13 0)
(650 -0.000140305 0)
(650 -5.92471e-05 0)
(650 -2.54176e-05 0)
(650 -9.42386e-06 0)
(650 -3.08849e-06 0)
(650 -8.97393e-07 0)
(650 -2.18029e-07 0)
(650 -1.16164e-08 0)
(650 2.43639e-08 0)
(650 1.52712e-08 0)
(650 6.63828e-09 0)
(650 2.74871e-09 0)
(650 1.0776e-09 0)
(650 4.00891e-10 0)
(650 1.43769e-10 0)
(650 4.74308e-11 0)
(650 1.56798e-11 0)
(650 4.70683e-12 0)
(650 1.15888e-12 0)
(650 6.14317e-13 0)
(650 3.88089e-13 0)
(650 3.11369e-13 0)
(650 2.74484e-13 0)
(650 -3.68126e-14 0)
(650 -2.21896e-13 0)
(650 3.94182e-13 0)
(650 -1.67484e-13 0)
(650 -2.2182e-13 0)
(650 -1.40741e-13 0)
(650 -1.49725e-13 0)
(650 -2.63129e-13 0)
(650 -6.26199e-14 0)
(650 1.10433e-13 0)
(650 -1.78785e-13 0)
(650 7.40902e-14 0)
(650 2.88564e-13 0)
(650 4.67804e-13 0)
(650 -2.16664e-13 0)
(650 1.89817e-13 0)
(650 2.18419e-13 0)
(650 -2.4562e-14 0)
(650 -3.32918e-13 0)
(650 1.7966e-13 0)
(650 5.05244e-13 0)
(650 2.16717e-13 0)
(650 1.94886e-14 0)
(650 4.25255e-14 0)
(650 1.89316e-13 0)
(650 1.82636e-13 0)
(650 4.21011e-13 0)
(650 -0.000121594 0)
(650 -5.76115e-05 0)
(650 -2.56942e-05 0)
(650 -9.84157e-06 0)
(650 -3.29683e-06 0)
(650 -1.00104e-06 0)
(650 -2.43614e-07 0)
(650 -2.40978e-08 0)
(650 1.38034e-08 0)
(650 1.26128e-08 0)
(650 5.56547e-09 0)
(650 2.3409e-09 0)
(650 9.28482e-10 0)
(650 3.4864e-10 0)
(650 1.266e-10 0)
(650 4.17383e-11 0)
(650 1.42035e-11 0)
(650 4.26682e-12 0)
(650 1.03881e-12 0)
(650 4.75737e-13 0)
(650 5.11203e-13 0)
(650 2.0756e-13 0)
(650 -2.57599e-14 0)
(650 -1.99851e-13 0)
(650 -2.02111e-13 0)
(650 3.83735e-13 0)
(650 -1.01514e-13 0)
(650 -1.99146e-13 0)
(650 -3.46202e-13 0)
(650 -2.19191e-13 0)
(650 -4.22716e-14 0)
(650 -3.24342e-14 0)
(650 7.91434e-15 0)
(650 -1.14438e-13 0)
(650 1.06436e-13 0)
(650 1.37469e-13 0)
(650 2.18793e-13 0)
(650 -3.06233e-14 0)
(650 3.94845e-13 0)
(650 2.32441e-13 0)
(650 -5.76951e-14 0)
(650 -4.49153e-13 0)
(650 3.28845e-13 0)
(650 6.93469e-13 0)
(650 6.02724e-14 0)
(650 5.80786e-14 0)
(650 9.38841e-14 0)
(650 2.59644e-13 0)
(650 2.09881e-13 0)
(650 2.84083e-13 0)
(650 -9.94041e-05 0)
(650 -5.68879e-05 0)
(650 -2.59741e-05 0)
(650 -1.01209e-05 0)
(650 -3.33835e-06 0)
(650 -1.0085e-06 0)
(650 -2.31755e-07 0)
(650 -2.81377e-08 0)
(650 7.25637e-09 0)
(650 9.87909e-09 0)
(650 4.51396e-09 0)
(650 1.92008e-09 0)
(650 7.65325e-10 0)
(650 2.88182e-10 0)
(650 1.05529e-10 0)
(650 3.47358e-11 0)
(650 1.2112e-11 0)
(650 3.58667e-12 0)
(650 9.82597e-13 0)
(650 3.64114e-13 0)
(650 5.26725e-13 0)
(650 6.90547e-15 0)
(650 -3.14062e-13 0)
(650 -4.36179e-13 0)
(650 -1.35918e-13 0)
(650 1.58709e-13 0)
(650 -1.32171e-13 0)
(650 -1.70818e-13 0)
(650 -3.34423e-13 0)
(650 -4.30099e-13 0)
(650 2.464e-13 0)
(650 1.86131e-13 0)
(650 -8.25929e-15 0)
(650 3.23851e-14 0)
(650 4.43732e-13 0)
(650 -1.04769e-13 0)
(650 -3.68343e-16 0)
(650 1.75624e-13 0)
(650 6.62576e-13 0)
(650 3.94184e-13 0)
(650 -1.75273e-13 0)
(650 -2.70748e-13 0)
(650 4.91806e-13 0)
(650 5.64696e-13 0)
(650 -7.34191e-14 0)
(650 5.04888e-14 0)
(650 2.51115e-13 0)
(650 4.21411e-13 0)
(650 3.59437e-13 0)
(650 1.95749e-13 0)
(650 -8.01623e-05 0)
(650 -5.59962e-05 0)
(650 -2.63547e-05 0)
(650 -1.02475e-05 0)
(650 -3.2327e-06 0)
(650 -9.39803e-07 0)
(650 -2.02691e-07 0)
(650 -2.493e-08 0)
(650 5.64647e-09 0)
(650 7.46403e-09 0)
(650 3.50975e-09 0)
(650 1.50814e-09 0)
(650 5.99003e-10 0)
(650 2.24e-10 0)
(650 8.19696e-11 0)
(650 2.63964e-11 0)
(650 9.42338e-12 0)
(650 2.74388e-12 0)
(650 8.75982e-13 0)
(650 3.36823e-13 0)
(650 4.37569e-13 0)
(650 -1.10884e-13 0)
(650 -4.68817e-13 0)
(650 -4.77355e-13 0)
(650 7.57855e-15 0)
(650 -8.13504e-14 0)
(650 -2.87343e-13 0)
(650 -3.56472e-13 0)
(650 -2.71698e-13 0)
(650 -4.81569e-13 0)
(650 3.02238e-13 0)
(650 4.03226e-13 0)
(650 1.33939e-14 0)
(650 2.9935e-13 0)
(650 6.88599e-13 0)
(650 -1.11683e-13 0)
(650 3.56723e-14 0)
(650 2.83998e-13 0)
(650 7.378e-13 0)
(650 4.92829e-13 0)
(650 -3.00063e-13 0)
(650 -1.70038e-13 0)
(650 5.72151e-13 0)
(650 5.25987e-13 0)
(650 -9.05531e-14 0)
(650 2.14047e-13 0)
(650 4.51213e-13 0)
(650 5.04195e-13 0)
(650 4.07739e-13 0)
(650 1.59641e-13 0)
(650 -1.93088e-13 0)
(650 -8.33465e-15 0)
(650 -8.28559e-14 1.08353e-17)
(650 6.74569e-14 -1.12334e-17)
(650 3.36948e-14 0)
(650 2.95678e-13 0)
(650 1.29534e-13 1.10452e-17)
(650 -4.48612e-13 4.37812e-17)
(650 -3.48663e-13 0)
(650 -6.14736e-13 0)
(650 -2.86965e-13 -2.14795e-17)
(650 -5.3801e-15 -2.14836e-17)
(650 -1.68001e-13 -2.1517e-17)
(650 -3.27032e-13 -2.15085e-17)
(650 -1.23355e-13 -2.10497e-17)
(650 2.14571e-13 2.07784e-17)
(650 4.15432e-13 4.1707e-17)
(650 1.62731e-12 4.17633e-17)
(650 5.69723e-13 0)
(650 -2.64304e-13 2.09124e-17)
(650 -3.14538e-13 -4.1909e-17)
(650 3.52495e-14 -2.08885e-17)
(650 5.54403e-12 0)
(650 9.37726e-11 2.08431e-17)
(650 9.76717e-10 -2.08661e-17)
(650 9.27354e-09 2.09063e-17)
(650 8.20906e-08 -2.09436e-17)
(650 6.46521e-07 4.22684e-17)
(650 4.78892e-06 0)
(650 2.83788e-05 0)
(650 6.59323e-06 3.75574e-17)
(650 2.53683e-05 -1.07221e-17)
(650 -2.31533e-06 -1.09537e-17)
(650 -2.37085e-07 -2.25451e-17)
(650 -5.51196e-06 0)
(650 -7.80418e-07 0)
(650 2.46898e-07 -1.04478e-17)
(650 -3.62693e-08 0)
(650 -2.79105e-09 2.09965e-17)
(650 1.19117e-12 5.61609e-30)
(650 4.0549e-14 2.07322e-17)
(650 -7.29425e-13 -2.07228e-17)
(650 -7.95059e-14 2.0819e-17)
(650 6.80325e-13 -5.07395e-31)
(650 -8.49166e-13 0)
(650 7.5642e-13 4.15686e-17)
(650 6.86599e-13 0)
(650 -3.10167e-13 -2.07967e-17)
(650 2.49608e-13 0)
(650 -1.8791e-13 -1.03964e-17)
(650 -4.6023e-13 -3.13309e-17)
(650 8.61815e-09 0)
(650 0.0117895 0)
(649.977 0.573738 4.24421e-17)
(643.959 -0.113914 0)
(631.606 -5.34258 8.55605e-18)
(551.154 -6.11063 0)
(411.218 87.0641 3.38843e-17)
(335.9 -145.99 0)
(293.87 469.65 -2.06627e-17)
(466.51 385.495 1.68197e-17)
(649.999 0.000829107 -2.90386e-17)
(459.919 255.375 0)
(551.373 213.667 -5.73898e-18)
(656.589 148.554 -1.31097e-17)
(658.952 1.18129 -8.6063e-18)
(581.015 -124.927 0)
(477.398 -201.08 -2.05746e-17)
(385.543 -205.003 -1.92573e-17)
(274.935 -194.716 -2.44028e-17)
(205.97 -202.664 2.16927e-17)
(264.427 -212.036 3.55237e-17)
(503.155 -155.028 0)
(66.104 149.592 8.01493e-17)
(-258.851 -246.52 2.11727e-17)
(639.816 -26.4668 4.36573e-18)
(647.253 1.3765 0)
(649.996 0.0039488 9.14008e-18)
(650 8.68158e-06 0)
(650 7.16437e-09 0)
(650 1.95923e-11 0)
(650 4.49823e-13 0)
(650 -1.36789e-13 -1.49647e-17)
(650 -8.07754e-14 0)
(650 1.72041e-13 -7.62086e-18)
(650 0.000103561 -1.93798e-17)
(650 -1.24053e-06 1.09266e-17)
(380.444 -186.609 -1.64385e-16)
(650 9.01651e-14 0)
(650 -2.69314e-14 0)
(650 -7.30297e-14 -2.1576e-17)
(650 3.40004e-14 0)
(650 -2.05774e-14 1.0968e-17)
(650 7.58824e-14 -3.49195e-19)
(650 5.4268e-14 3.3351e-17)
(650 2.39794e-14 -3.37901e-17)
(650 -4.62931e-13 3.17877e-17)
(650 -3.00658e-13 -2.19885e-17)
(650 -6.53949e-13 0)
(650 -3.7902e-13 -2.13686e-17)
(650 -2.48549e-13 -2.15307e-17)
(650 4.86676e-14 0)
(650 -3.52238e-13 4.31939e-17)
(650 -2.06739e-13 2.12264e-17)
(650 -1.21357e-13 -2.08915e-17)
(650 -5.37384e-14 4.17783e-17)
(650 1.01038e-12 -2.08565e-17)
(650 1.09739e-12 2.09619e-17)
(650 -1.95587e-13 2.09057e-17)
(650 -4.59151e-14 -1.46146e-31)
(650 -4.45487e-13 2.09946e-17)
(650 9.01787e-13 0)
(650 2.6638e-11 0)
(650 3.05827e-10 -2.0866e-17)
(650 3.03946e-09 0)
(650 2.77622e-08 2.09028e-17)
(650 2.34232e-07 2.10029e-17)
(650 1.74973e-06 0)
(650 1.23442e-05 -2.16622e-17)
(650 -1.76891e-13 0)
(650 4.79868e-05 2.27519e-17)
(650 -4.13446e-07 1.04074e-17)
(650 -2.48765e-06 2.24155e-17)
(650 -3.59715e-06 1.11126e-17)
(650 -2.66962e-13 0)
(650 -3.40974e-06 0)
(650 -3.14939e-07 0)
(650 -2.97211e-08 -1.9782e-17)
(482.778 123.852 -1.73169e-16)
(650 -2.66721e-07 1.92247e-17)
(650 -3.19593e-08 2.09548e-17)
(650 1.02477e-10 0)
(650 3.26798e-13 -4.83085e-31)
(650 -5.88347e-13 -2.08325e-17)
(650 -5.30881e-13 -2.42292e-32)
(650 4.65254e-13 0)
(650 -5.74702e-14 0)
(650 2.37633e-13 2.07174e-17)
(650 6.67216e-14 0)
(650 -1.13974e-13 2.07939e-17)
(650 4.68373e-13 0)
(650 -2.91225e-13 0)
(650 -4.12026e-13 -2.08337e-17)
(650 9.98452e-12 -2.12729e-17)
(650 9.76745e-06 0)
(649.998 0.215115 0)
(648.768 0.966031 -1.37034e-17)
(641.865 -0.574065 0)
(604.858 -7.88366 0)
(475.392 6.5387 0)
(333.698 141.291 4.23243e-17)
(661.461 159.972 -6.70377e-19)
(486.974 310.469 0)
(404.631 262.334 -1.46635e-17)
(558.663 194.213 4.3707e-18)
(690.597 13.2323 6.97561e-18)
(609.965 -148.858 0)
(500.431 -223.872 -1.37966e-17)
(420.962 -231.225 5.78453e-17)
(322.487 -218.1 1.118e-18)
(292.862 -152.501 -5.79314e-17)
(382.887 -68.6148 -7.10532e-17)
(576.206 -106.828 0)
(531.637 -30.0439 0)
(587.261 19.9722 1.38162e-17)
(649.896 0.0722769 -1.15719e-17)
(650 0.000202293 0)
(650 -4.39154e-05 3.19973e-18)
(650 2.82747e-07 1.94978e-25)
(650 -4.30651e-08 1.6648e-17)
(650 2.61101e-10 -8.42647e-29)
(650 1.44864e-12 1.41691e-17)
(650 1.67083e-13 -3.56834e-17)
(650 -2.45995e-13 -2.27825e-17)
(650 -1.75501e-14 0)
(650 1.03603e-13 -1.11252e-17)
(650 3.32466e-14 -1.12253e-17)
(650 4.37106e-14 1.23941e-17)
(650 -3.03133e-13 4.22398e-20)
(650 -4.78251e-13 0)
(650 -4.41011e-13 0)
(650 3.48599e-13 2.15541e-17)
(650 -1.23062e-13 0)
(650 -5.78855e-14 -2.15005e-17)
(650 -4.00303e-14 9.91507e-32)
(650 -3.34437e-14 2.09615e-17)
(650 2.24548e-13 -4.15426e-17)
(650 -5.56231e-13 -2.08748e-17)
(650 -3.67106e-13 -4.17444e-17)
(650 4.10812e-13 1.01966e-20)
(650 1.78883e-13 2.08748e-17)
(650 1.028e-12 1.02172e-20)
(650 1.11782e-12 4.08278e-20)
(650 1.77755e-12 0)
(650 1.2192e-11 -2.08367e-17)
(650 1.71632e-10 2.08817e-17)
(650 2.07009e-09 -2.08899e-17)
(650 2.38368e-08 2.10268e-17)
(650 2.65737e-07 -2.14577e-17)
(650 2.28328e-06 0)
(650 2.7337e-05 0)
(650 -1.55878e-06 -2.18125e-17)
(650 5.32151e-07 1.12448e-17)
(650 -3.39909e-06 -1.52694e-18)
(650 -4.18476e-08 -6.34193e-19)
(650 5.67485e-10 -1.63389e-19)
(650 -3.45137e-12 4.16456e-17)
(650 1.53371e-13 -2.07355e-17)
(650 6.00896e-13 2.06847e-17)
(650 -2.85535e-13 0)
(650 1.17174e-12 -2.07366e-17)
(650 7.99968e-13 -2.07046e-17)
(650 4.15721e-13 -2.08354e-17)
(650 6.16548e-13 -2.07797e-17)
(650 -5.10889e-13 0)
(650 1.65937e-13 0)
(650 2.20515e-14 3.10878e-17)
(650 7.21976e-13 3.14234e-17)
(650 2.33114e-07 0)
(649.999 0.0279861 4.02017e-18)
(649.861 0.368901 -2.5962e-17)
(643.978 1.22987 0)
(619.682 7.12148 -9.74832e-18)
(518.288 37.5854 0)
(435.332 230.558 -3.19825e-17)
(649.999 0.00447029 -2.62813e-22)
(520.687 -23.7082 -7.95001e-18)
(649.49 -0.55177 1.22468e-17)
(649.998 -0.00101759 -3.91888e-18)
(650 -1.55884e-06 -2.08911e-17)
(650 -1.06092e-09 1.41317e-17)
(650 -1.59934e-12 -1.6732e-17)
(650 -2.72348e-13 1.52903e-17)
(650 -1.76944e-13 2.53458e-17)
(650 -2.45019e-13 4.29716e-17)
(650 -2.46688e-13 2.15523e-17)
(650 4.26313e-13 -2.17271e-17)
(650 -6.80203e-13 2.11522e-17)
(650 -9.04584e-15 8.11602e-20)
(650 5.41151e-14 -4.15815e-17)
(650 -2.44266e-13 -1.33467e-31)
(650 8.91535e-14 2.04778e-20)
(650 6.26682e-13 -4.16869e-17)
(650 6.05693e-13 8.55819e-32)
(650 -2.08857e-13 2.09317e-17)
(650 2.07583e-12 0)
(650 3.64874e-12 2.03451e-20)
(650 4.69787e-11 2.08482e-17)
(650 5.99249e-10 0)
(650 7.08487e-09 -2.08865e-17)
(650 8.06218e-08 -4.23589e-17)
(650 7.83362e-07 3.39635e-19)
(650 6.80484e-06 2.17904e-17)
(650 9.63455e-07 1.0193e-17)
(650 -2.43837e-06 0)
(650 -6.01239e-06 1.38103e-18)
(650 2.07344e-13 4.1513e-17)
(650 8.47165e-13 -4.15427e-17)
(650 6.3186e-14 2.07321e-17)
(650 1.04367e-12 0)
(650 3.54329e-13 -2.06897e-17)
(650 3.22861e-13 2.01737e-20)
(650 6.44547e-14 2.07449e-17)
(650 -5.20291e-13 4.04386e-20)
(650 -1.83406e-13 0)
(650 2.80134e-13 2.08919e-17)
(650 1.87395e-10 6.72106e-19)
(650 0.000279877 0)
(649.992 0.125409 -1.94404e-17)
(645.824 0.846368 1.64918e-17)
(638.151 2.91504 -3.93621e-18)
(583.608 15.793 0)
(449.711 113.099 -2.11168e-17)
(395.104 320.117 0)
(650 8.41297e-14 -4.26044e-17)
(650 1.029e-13 2.10668e-17)
(650 9.36403e-14 -1.02114e-17)
(650 -3.47101e-06 -1.11857e-17)
(650 -5.64746e-13 -2.07395e-17)
(650 3.47042e-13 -2.09501e-17)
(650 1.31149e-08 -4.15759e-17)
(650 -1.11101e-13 0)
(650 -3.80085e-13 3.56757e-17)
(650 -2.86744e-13 0)
(649.97 -0.0227161 -9.96829e-18)
(642.021 -14.1971 0)
(650 -4.19447e-11 -1.08606e-17)
(650 -3.65362e-14 2.16788e-17)
(650 -2.18716e-13 0)
(650 9.18644e-15 2.01958e-17)
(650 1.16845e-13 0)
(650 3.28944e-15 -2.21923e-17)
(650 -2.97249e-06 1.09729e-18)
(650 7.6461e-05 -3.43035e-17)
(650 1.5216e-13 3.34997e-19)
(650 1.8606e-15 -2.13772e-17)
(650 -4.34619e-08 2.13205e-17)
(650 -4.00128e-14 0)
(650 3.80762e-13 0)
(650 7.08111e-07 2.22185e-17)
(650 -1.86713e-13 -2.15867e-17)
(650 1.47529e-13 -2.1616e-17)
(650 -9.32215e-14 0)
(650 -6.73649e-15 2.08455e-17)
(650 -2.10063e-13 -1.81296e-31)
(650 -3.53115e-13 5.09491e-21)
(650 -4.74668e-13 2.08628e-17)
(650 8.40658e-13 -2.08843e-17)
(650 9.04005e-13 -2.08346e-17)
(650 1.143e-12 2.08759e-17)
(650 6.75546e-13 -2.09017e-17)
(650 1.65779e-12 -2.08747e-17)
(650 -2.13385e-12 2.07751e-17)
(650 -2.67998e-11 0)
(650 -3.48115e-10 -2.08869e-17)
(650 -3.79848e-09 2.10506e-17)
(650 -1.56628e-08 4.2651e-17)
(650 -1.86323e-07 -2.22243e-17)
(650 1.21841e-06 2.10166e-17)
(650 2.14689e-06 -2.25798e-17)
(650 4.43872e-07 -1.87239e-17)
(650 2.46212e-13 -5.25492e-31)
(650 4.87645e-13 2.1085e-17)
(650 2.16579e-13 -2.11875e-17)
(650 -1.98646e-12 2.08259e-17)
(650 -2.52819e-06 -4.62555e-18)
(650 -3.64573e-06 -2.31709e-17)
(650 -2.53086e-06 2.20232e-17)
(650 2.76093e-13 2.07686e-17)
(650 -3.04604e-13 -2.17414e-17)
(650 5.52048e-14 2.352e-17)
(650 -2.04465e-14 2.18942e-17)
(625.628 -60.0355 4.78624e-18)
(650 -6.23632e-14 -1.77936e-17)
(650 -1.17706e-12 -2.07548e-17)
(650 -7.86421e-13 2.08353e-17)
(650 -2.56646e-13 2.07203e-17)
(650 -2.90049e-13 0)
(650 5.27105e-11 2.08806e-17)
(650 -5.78856e-12 -2.08408e-17)
(650 3.54905e-13 0)
(650 -5.892e-13 0)
(650 9.72887e-13 2.06449e-17)
(650 3.32184e-13 -2.07385e-17)
(650 1.62948e-13 -2.08031e-17)
(650 5.9089e-13 0)
(650 -1.51803e-13 -4.04756e-20)
(650 -5.5527e-14 0)
(650 3.12975e-13 -1.6098e-19)
(650 -1.73946e-11 2.0626e-17)
(650 3.93983e-07 -1.34848e-17)
(649.999 0.000886105 -1.9759e-17)
(646.586 -0.151952 -1.46379e-17)
(642.134 6.95844 -1.02206e-17)
(591.192 38.4787 -2.1739e-17)
(545.038 87.7204 0)
(555.071 284.629 -1.15515e-17)
(394.359 305.69 1.10406e-17)
(650 3.77383e-14 4.41461e-17)
(650 -2.16812e-14 1.88103e-32)
(638.831 67.7349 0)
(564.033 235.833 0)
(569.373 -66.3195 1.69663e-17)
(588.284 150.972 -7.49935e-18)
(606.178 156.352 2.06284e-17)
(633.584 72.0364 1.80786e-17)
(650 2.10758e-05 4.40364e-17)
(649.484 -0.0263856 0)
(650 5.96931e-11 2.03117e-17)
(649.999 0.000201328 -1.07565e-17)
(650 -0.000137732 -3.25649e-17)
(644.913 -0.50407 -1.56729e-17)
(649.226 -0.635882 -6.68141e-18)
(650 1.13864e-09 -3.85626e-17)
(650 -1.96777e-10 1.10633e-17)
(650 3.36074e-08 -1.52487e-17)
(650 -5.60752e-09 2.05537e-17)
(650 2.28098e-14 4.35499e-17)
(649.972 -0.00011317 -1.84121e-17)
(649.998 -0.00225634 2.39474e-17)
(650 1.2163e-13 -3.5865e-17)
(650 6.9105e-13 -1.24453e-17)
(650 -6.15859e-14 -1.13665e-17)
(650 -1.74991e-13 2.14975e-17)
(650 -1.88888e-13 0)
(650 -1.95866e-13 -3.78154e-18)
(650 9.27777e-14 1.31905e-17)
(650 -1.87908e-14 0)
(638.977 -61.8668 -2.23713e-17)
(591.039 -198.109 0)
(532.107 -276.598 0)
(494.979 -254.153 -5.22594e-17)
(514.53 -157.532 2.9004e-17)
(591.178 -72.89 -1.59142e-17)
(585.34 -36.9773 1.78649e-17)
(592.006 -64.3922 1.82671e-17)
(583.997 -54.2215 -1.93004e-17)
(614.703 -30.5883 -1.72131e-17)
(650 -2.43027e-07 -7.92862e-26)
(650 -6.31057e-08 -3.89406e-26)
(650 1.35245e-13 -2.26348e-17)
(650 5.96124e-14 0)
(650 1.29308e-14 2.38616e-17)
(650 1.19177e-10 2.09784e-17)
(650 -5.8897e-11 -3.27232e-19)
(650 5.68042e-14 0)
(650 -8.3696e-06 2.07721e-17)
(650 -1.57162e-06 -1.98347e-17)
(517.765 303.646 0)
(526.21 335.161 0)
(604.306 294.231 0)
(650 -3.52574e-14 1.03666e-17)
(650 4.10615e-13 2.08218e-17)
(650 -3.49865e-13 -2.08267e-17)
(650 1.40791e-13 3.50536e-19)
(650 2.51223e-13 7.24017e-19)
(629.46 -0.830774 2.62471e-18)
(650 -6.65411e-07 3.37349e-17)
(650 -2.53672e-14 -2.06684e-17)
(650 2.78697e-13 0)
(650 -3.79372e-13 -2.17923e-17)
(650 2.26429e-13 1.5708e-31)
(650 -5.97965e-07 -2.96973e-17)
(650 -9.75272e-14 -4.14812e-17)
(650 -1.42165e-13 -1.69744e-17)
(650 1.90944e-14 0)
(650 -1.12942e-13 -2.15716e-17)
(650 1.71593e-13 1.68827e-19)
(650 -3.33352e-13 0)
(650 -8.72836e-14 2.06032e-17)
(650 2.25013e-13 0)
(650 2.58146e-13 -2.08345e-17)
(650 2.80961e-13 -2.08636e-17)
(650 1.12559e-12 -2.09124e-17)
(650 8.80969e-13 0)
(650 -2.38349e-15 2.08664e-17)
(650 1.52309e-12 0)
(650 -5.21199e-13 -2.04482e-20)
(650 -6.36602e-12 2.08151e-17)
(650 -9.83712e-11 0)
(650 -1.14634e-09 -2.10303e-17)
(650 -1.40103e-08 0)
(650 -1.25815e-08 -3.39108e-19)
(650 -3.98538e-07 -2.22368e-17)
(650 9.0365e-06 1.06479e-17)
(563.773 284.157 0)
(650 -1.50188e-13 6.62485e-19)
(650 -2.09262e-06 1.59541e-24)
(650 -2.6373e-06 2.10621e-17)
(650 -5.80617e-07 -1.12346e-17)
(650 -2.98942e-06 -2.38465e-17)
(650 9.21995e-07 0)
(650 -1.89842e-14 4.31203e-17)
(650 -1.12606e-06 1.17575e-17)
(650 -4.09389e-13 2.15094e-17)
(650 -5.6765e-14 9.67191e-18)
(650 -3.97918e-09 -8.20661e-20)
(650 -4.59603e-13 -4.07142e-20)
(650 -2.92479e-13 0)
(650 5.24094e-13 -2.07136e-17)
(650 -1.94806e-13 0)
(650 -1.59443e-13 2.01869e-20)
(650 2.97427e-13 -2.07772e-17)
(650 4.25166e-13 0)
(650 1.18578e-13 2.06692e-17)
(650 1.09478e-13 -2.06779e-17)
(650 -3.5411e-13 2.07152e-17)
(650 3.23401e-14 -2.06666e-17)
(650 -2.64885e-14 0)
(650 8.13326e-13 -2.08964e-17)
(650 4.35763e-08 1.24359e-17)
(650 -2.01263e-09 2.30587e-17)
(650 4.8262e-05 -4.12265e-18)
(649.853 -0.00133129 1.26885e-17)
(646.008 2.93087 -2.09178e-17)
(624.599 17.1792 1.71124e-17)
(581.894 56.9604 3.03913e-17)
(542.3 196.694 -2.09247e-17)
(650 -3.73903e-13 0)
(650 -1.14762e-13 -2.08763e-17)
(637.584 -48.3969 1.95944e-17)
(650 -4.30296e-14 -1.0564e-17)
(650 -4.78697e-14 -2.303e-17)
(649.976 -0.0349274 -1.03405e-17)
(650 3.68168e-08 0)
(650 -4.96547e-13 -3.13111e-32)
(650 -1.06352e-13 2.20948e-17)
(650 -4.11121e-14 -2.26735e-17)
(650 -3.2818e-14 0)
(650 -2.00365e-07 8.90453e-18)
(650 5.81663e-13 0)
(650 1.03301e-06 -3.80675e-17)
(650 5.42392e-12 0)
(650 -1.48421e-13 -2.28031e-18)
(650 1.42624e-13 0)
(547.575 -253.309 0)
(588.707 -165.286 1.87297e-17)
(513.353 -300.474 3.30943e-17)
(532.03 -246.679 -1.91516e-17)
(595.596 -118.738 6.04386e-18)
(530.121 -24.5941 1.55976e-17)
(550.553 5.36881 1.91887e-17)
(650 -5.68565e-07 -2.24704e-25)
(614.164 23.8561 -2.04346e-17)
(645.189 3.81215 3.50227e-17)
(648.785 0.44934 -6.87801e-18)
(650 -3.03115e-07 1.38799e-18)
(556.971 -73.5766 0)
(650 -7.77314e-12 -1.85899e-17)
(650 -6.2391e-06 4.16829e-17)
(545.853 132.416 -9.60304e-18)
(636.677 10.1798 7.58375e-18)
(646.408 1.3212 1.70961e-17)
(649.989 0.00389089 -1.13505e-17)
(650 1.45021e-05 0)
(650 -7.20479e-11 -1.93666e-17)
(650 -1.83898e-13 0)
(650 -2.65866e-14 5.01537e-21)
(650 -6.20957e-14 2.06834e-17)
(650 2.83289e-13 0)
(650 6.25769e-15 4.04304e-20)
(650 -2.97361e-08 -2.20068e-17)