/*--------------------------------*- C++ -*----------------------------------*\
  =========                 |
  \\      /  F ield         | OpenFOAM: The Open Source CFD Toolbox
   \\    /   O peration     | Website:  https://openfoam.org
    \\  /    A nd           | Version:  6
     \\/     M anipulation  |
\*---------------------------------------------------------------------------*/
FoamFile
{
    version     2.0;
    format      ascii;
    class       surfaceScalarField;
    location    "0.0007";
    object      phi;
}
// * * * * * * * * * * * * * * * * * * * * * * * * * * * * * * * * * * * * * //

dimensions      [1 0 -1 0 0 0 0];

internalField   nonuniform List<scalar> 
5786
(
0.150621
-1.18794e-14
0.150621
-2.59237e-14
0.150621
-3.68039e-14
0.150621
-6.18394e-14
0.150621
-1.45384e-13
0.150621
-4.55441e-13
0.150621
-1.61521e-12
0.150621
-5.62198e-12
0.150621
-1.83953e-11
0.150621
-5.54329e-11
0.150621
-1.45959e-10
0.150621
-1.85913e-11
0.150621
1.55243e-09
0.150621
9.7251e-09
0.150621
4.23124e-08
0.150621
1.48863e-07
0.150621
5.36183e-07
0.150621
-8.24519e-07
0.150621
-2.47228e-06
0.150621
1.02658e-06
0.15062
1.23585e-06
0.150621
-4.18763e-06
0.150622
-4.95811e-06
0.150621
-2.78021e-06
0.150621
-5.2689e-07
0.150621
-1.07553e-07
0.150621
-2.1761e-08
0.150621
-4.9146e-09
0.150621
-1.49192e-09
0.150621
-5.11269e-10
0.150621
-1.56397e-10
0.150621
-3.65069e-11
0.150621
-3.60587e-12
0.150621
4.03258e-12
0.150621
9.19351e-12
0.150621
1.30608e-11
0.150621
2.2358e-11
0.150621
4.02129e-11
0.150621
7.80511e-11
0.150621
1.53639e-10
0.150621
3.03422e-10
0.150621
6.16776e-10
0.150621
1.28853e-09
0.150621
2.72235e-09
0.150621
5.72202e-09
0.150621
9.56779e-09
0.150621
1.27816e-08
0.150621
1.51217e-08
0.150621
1.38476e-08
8.47331e-09
0.150621
-1.49047e-14
0.150621
-2.6007e-14
0.150621
-3.66096e-14
0.150621
-6.35603e-14
0.150621
-1.49297e-13
0.150621
-4.4853e-13
0.150621
-1.57394e-12
0.150621
-5.43235e-12
0.150621
-1.76764e-11
0.150621
-5.32302e-11
0.150621
-1.32251e-10
0.150621
2.06164e-11
0.150621
1.69892e-09
0.150621
1.07466e-08
0.150621
4.86837e-08
0.150621
1.86425e-07
0.150621
8.99479e-07
0.150621
-7.89616e-07
0.150622
-3.99197e-06
0.150621
1.03949e-06
0.15062
2.28543e-06
0.150621
-3.98657e-06
0.150622
-5.7077e-06
0.150621
-3.34257e-06
0.150621
-7.06396e-07
0.150621
-1.4656e-07
0.150621
-2.97764e-08
0.150621
-6.55822e-09
0.150621
-1.95448e-09
0.150621
-6.80637e-10
0.150621
-2.16675e-10
0.150621
-5.35199e-11
0.150621
-7.10765e-12
0.150621
3.89938e-12
0.150621
1.00702e-11
0.150621
1.41326e-11
0.150621
2.50303e-11
0.150621
4.43637e-11
0.150621
8.59531e-11
0.150621
1.66637e-10
0.150621
3.22677e-10
0.150621
6.42148e-10
0.150621
1.34034e-09
0.150621
2.82112e-09
0.150621
5.94967e-09
0.150621
9.6502e-09
0.150621
1.28808e-08
0.150621
1.4941e-08
0.150621
1.34344e-08
7.23711e-09
0.150621
-1.62925e-14
0.150621
-3.18634e-14
0.150621
-3.81084e-14
0.150621
-6.37546e-14
0.150621
-1.50435e-13
0.150621
-4.43867e-13
0.150621
-1.5288e-12
0.150621
-5.23298e-12
0.150621
-1.68693e-11
0.150621
-5.07597e-11
0.150621
-1.13401e-10
0.150621
6.98105e-11
0.150621
1.82778e-09
0.150621
1.16376e-08
0.150621
5.46099e-08
0.150621
2.24877e-07
0.150621
1.35097e-06
0.150621
-3.4491e-07
0.150622
-5.81666e-06
0.150621
3.0108e-07
0.150619
3.84815e-06
0.150621
-3.47983e-06
0.150622
-6.59738e-06
0.150621
-4.00201e-06
0.150621
-9.55051e-07
0.150621
-1.99685e-07
0.150621
-4.09528e-08
0.150621
-8.80995e-09
0.150621
-2.56545e-09
0.150621
-9.04565e-10
0.150621
-2.99554e-10
0.150621
-7.82408e-11
0.150621
-1.23253e-11
0.150621
3.49867e-12
0.150621
1.08685e-11
0.150621
1.51103e-11
0.150621
2.78191e-11
0.150621
4.85246e-11
0.150621
9.38315e-11
0.150621
1.79672e-10
0.150621
3.43616e-10
0.150621
6.65114e-10
0.150621
1.39274e-09
0.150621
2.91538e-09
0.150621
6.13623e-09
0.150621
9.73934e-09
0.150621
1.29463e-08
0.150621
1.48021e-08
0.150621
1.30113e-08
6.11779e-09
0.150621
-1.50713e-14
0.150621
-3.45002e-14
0.150621
-3.77198e-14
0.150621
-6.52811e-14
0.150621
-1.5124e-13
0.150621
-4.45893e-13
0.150621
-1.49797e-12
0.150621
-5.02343e-12
0.150621
-1.59541e-11
0.150621
-4.78655e-11
0.150621
-8.94847e-11
0.150621
1.26037e-10
0.150621
1.96722e-09
0.150621
1.24971e-08
0.150621
6.06218e-08
0.150621
2.69148e-07
0.150621
1.9517e-06
0.15062
9.03745e-07
0.150622
-7.69954e-06
0.150621
-1.54489e-06
0.150619
5.63983e-06
0.150621
-2.47313e-06
0.150622
-7.54372e-06
0.150621
-4.79541e-06
0.150621
-1.28497e-06
0.150621
-2.71306e-07
0.150621
-5.63964e-08
0.150621
-1.18972e-08
0.150621
-3.36691e-09
0.150621
-1.19582e-09
0.150621
-4.11144e-10
0.150621
-1.13551e-10
0.150621
-2.0297e-11
0.150621
2.63259e-12
0.150621
1.15762e-11
0.150621
1.60189e-11
0.150621
3.0784e-11
0.150621
5.30083e-11
0.150621
1.01767e-10
0.150621
1.93142e-10
0.150621
3.66878e-10
0.150621
6.86583e-10
0.150621
1.44348e-09
0.150621
3.01523e-09
0.150621
6.28207e-09
0.150621
9.83195e-09
0.150621
1.29712e-08
0.150621
1.47146e-08
0.150621
1.25674e-08
5.0249e-09
0.150621
-1.49075e-14
0.150621
-3.44125e-14
0.150621
-3.86457e-14
0.150621
-5.64477e-14
0.150621
-1.08523e-13
0.150621
-3.00279e-13
0.150621
-1.05686e-12
0.150621
-3.68688e-12
0.150621
-1.23673e-11
0.150621
-4.14804e-11
0.150621
-1.29055e-10
0.150621
-2.19605e-10
0.150621
5.37615e-10
0.150621
8.48132e-09
0.150621
5.49921e-08
0.150621
3.21135e-07
0.15062
3.26483e-06
0.150619
4.01787e-06
0.150623
-9.90192e-06
0.150622
-4.15333e-06
0.150617
9.05878e-06
0.150621
-1.2227e-06
0.150622
-8.95891e-06
0.150622
-5.29185e-06
0.150621
-1.66527e-06
0.150621
-3.77716e-07
0.150621
-7.79438e-08
0.150621
-1.6251e-08
0.150621
-4.43079e-09
0.150621
-1.57266e-09
0.150621
-5.57297e-10
0.150621
-1.61998e-10
0.150621
-3.19164e-11
0.150621
1.10286e-12
0.150621
1.21789e-11
0.150621
1.60238e-11
0.150621
3.46229e-11
0.150621
5.76708e-11
0.150621
1.09571e-10
0.150621
2.06814e-10
0.150621
3.94412e-10
0.150621
6.78952e-10
0.150621
1.4962e-09
0.150621
3.13697e-09
0.150621
6.4454e-09
0.150621
9.93459e-09
0.150621
1.29257e-08
0.150621
1.51891e-08
0.150621
1.25206e-08
3.09084e-09
-0.00120661
0.0572118
-0.0330925
-0.00373223
0.00844354
-0.0899409
0.0629152
-0.0505844
0.0216957
-0.0591031
0.00541906
-0.116416
-0.00271406
-0.196059
0.0339548
-0.360485
0.126179
-0.487057
0.156945
-0.463044
-0.000391239
-0.520065
0.0760397
-0.36733
-0.134196
-0.012546
-0.346397
0.0303507
0.000552152
-0.0363976
0.0603122
-0.00167751
0.085082
-0.0119105
-0.0163614
0.0277663
-0.0318379
0.0392595
-0.0744655
0.114285
-0.0642419
-0.00886971
-0.172746
0.0214083
-0.265647
0.143025
-0.389734
0.228317
-0.457066
0.273129
-0.619973
0.17963
-0.612325
0.0980846
-0.367694
-0.346328
-0.0153111
-0.667412
0.0199629
0.00319794
0.012226
-0.0242551
-0.00282164
0.111212
-0.0103667
-0.00457624
0.0322651
-0.0653344
0.0910438
-0.0909194
0.166043
-0.0624468
-0.0415982
-0.232423
0.0730431
-0.319996
0.262935
-0.458469
0.374605
-0.467766
0.314996
-0.531816
0.277627
-0.391516
-0.0170466
-0.240659
-0.480709
-0.0295255
-0.873177
0.0195728
-0.0224843
0.044486
-0.0143684
-0.00662336
0.149965
-0.0144991
-0.0177382
0.0227566
-0.103551
0.166182
-0.0717315
0.272819
-0.100782
0.0238085
-0.257378
0.109651
-0.342376
0.377104
-0.470648
0.499584
-0.492046
0.403977
-0.410962
0.222798
-0.305712
-0.107391
-0.217969
-0.56198
-0.0392822
-1.06142
0.0294186
-0.0942881
0.083497
-0.0210257
-0.0127332
-0.022988
0.181507
-0.0485229
0.0349875
-0.210546
0.39329
-0.114336
0.237182
-0.140969
0.0615501
-0.292383
0.167553
-0.33103
0.458855
-0.42491
0.572027
-0.365149
0.390611
-0.394794
0.269675
-0.282515
-0.20547
-0.228131
-0.615319
-0.0556407
-1.24702
0.0624513
-0.230772
-0.0178234
0.152193
-0.0845345
0.0994717
0.0028018
-0.0960059
0.411856
-0.420781
0.585537
-0.187736
0.407179
0.169299
0.375438
0.00947042
0.422142
-0.00627463
0.554724
0.102597
0.138975
0.306676
0.0522963
0.025507
0.0234401
0.00569055
0.0193466
0.0036348
0.00243344
0.0370134
0.0197691
-0.0149353
-0.0107811
-0.0628711
0.104821
8.06103e-05
-0.158592
0.333833
-0.763738
0.643877
-0.504329
0.74326
0.061354
0.411633
0.318023
0.425601
-0.0329945
0.383295
0.31564
0.176539
0.398991
0.110821
0.14437
0.0342234
0.0140634
0.0739909
-0.0185829
0.0051565
0.127072
-0.00622086
0.02385
-0.0235298
-0.0557064
0.117407
0.0322141
-0.234838
0.247819
-0.946837
0.423754
-0.673878
0.555928
-0.0724224
0.631418
0.247812
0.3755
0.225764
0.405239
0.445229
0.27618
0.435568
0.144893
0.300201
0.0290148
0.0369385
0.0325063
-0.0192596
0.0101901
0.166986
-0.0054259
0.0308122
-0.0285691
-0.0612411
0.124696
0.0461389
-0.308146
0.226666
-1.08156
0.324214
-0.76076
0.43023
-0.180243
0.443729
0.239692
0.384787
0.298508
0.374255
0.55429
0.326574
0.474613
0.167037
0.471113
0.0527483
0.0742817
0.0142743
0.0394482
0.0408382
0.17847
-0.00467663
0.0556982
-0.0359758
-0.080532
0.142927
0.0419418
-0.390317
0.220798
-1.22824
0.349286
-0.878704
0.478594
-0.313761
0.445007
0.275162
0.331738
0.419968
0.370633
0.584397
0.299571
0.57661
0.166489
0.607677
0.0874645
0.0778003
0.031489
0.10555
0.0583508
0.167
-0.00455184
0.0775801
-0.0499384
-0.150621
3.64165e-08
-0.150621
3.26957e-08
-0.150621
3.31904e-08
-0.150621
2.64343e-08
-0.150621
2.3223e-08
-0.150621
1.14523e-08
-0.150621
5.50478e-09
-0.150621
2.65117e-09
-0.150621
1.32131e-09
-0.150621
6.33637e-10
-0.150621
2.82662e-10
-0.150621
1.26193e-10
-0.150621
5.63144e-11
-0.150621
2.47336e-11
-0.150621
9.31663e-12
-0.150621
-1.3764e-11
-0.150621
-1.35537e-10
-0.150621
-4.35203e-10
-0.150621
-8.83494e-10
-0.150621
-1.36946e-09
-0.150621
-1.9833e-09
-0.150621
-2.79872e-09
-0.150621
-2.75508e-09
-0.150621
1.04344e-09
-0.150621
2.49773e-08
-0.150621
1.34448e-07
-0.150621
5.30248e-07
-0.150621
1.59899e-06
-0.150621
2.6059e-06
-0.150621
2.94814e-06
-0.150621
3.66157e-06
-0.150621
4.31092e-06
-0.150621
4.40514e-06
-0.150621
1.5594e-06
-0.150621
5.28714e-07
-0.150621
1.67326e-07
-0.150621
4.77325e-08
-0.150621
1.30324e-08
-0.150621
3.43751e-09
-0.150621
8.80576e-10
-0.150621
2.17475e-10
-0.150621
5.15492e-11
-0.150621
1.15507e-11
-0.150621
2.35409e-12
-0.150621
3.86774e-13
-0.150621
2.43416e-14
-0.150621
-3.01703e-14
-0.150621
-3.58602e-14
-0.150621
-2.81164e-14
-1.11855e-14
-0.150621
3.50623e-08
-0.150621
3.05901e-08
-0.150621
3.24678e-08
-0.150621
2.63942e-08
-0.150621
2.37836e-08
-0.150621
1.20663e-08
-0.150621
5.76305e-09
-0.150621
2.80397e-09
-0.150621
1.42647e-09
-0.150621
6.92923e-10
-0.150621
3.04758e-10
-0.150621
1.35421e-10
-0.150621
6.02525e-11
-0.150621
2.63504e-11
-0.150621
9.5387e-12
-0.150621
-2.68435e-11
-0.150621
-1.93034e-10
-0.150621
-5.59254e-10
-0.150621
-1.05062e-09
-0.150621
-1.5312e-09
-0.150621
-2.15373e-09
-0.150621
-2.75469e-09
-0.150621
-2.47299e-09
-0.150621
3.78788e-09
-0.150621
3.97895e-08
-0.150621
2.00591e-07
-0.150621
7.53489e-07
-0.150621
2.16659e-06
-0.150621
3.07833e-06
-0.150621
3.34051e-06
-0.150621
4.15355e-06
-0.150621
5.18842e-06
-0.150621
5.435e-06
-0.150621
1.83952e-06
-0.150621
6.06364e-07
-0.150621
1.88487e-07
-0.150621
5.15321e-08
-0.150621
1.37009e-08
-0.150621
3.55396e-09
-0.150621
9.03418e-10
-0.150621
2.21783e-10
-0.150621
5.24161e-11
-0.150621
1.17305e-11
-0.150621
2.3809e-12
-0.150621
3.80362e-13
-0.150621
2.07612e-14
-0.150621
-2.88658e-14
-0.150621
-3.73035e-14
-0.150621
-2.98095e-14
-1.12965e-14
-0.150621
3.36455e-08
-0.150621
2.86746e-08
-0.150621
3.17722e-08
-0.150621
2.63752e-08
-0.150621
2.4228e-08
-0.150621
1.26541e-08
-0.150621
5.98688e-09
-0.150621
2.9829e-09
-0.150621
1.53206e-09
-0.150621
7.48506e-10
-0.150621
3.27455e-10
-0.150621
1.44481e-10
-0.150621
6.42172e-11
-0.150621
2.79189e-11
-0.150621
9.49754e-12
-0.150621
-4.75085e-11
-0.150621
-2.69365e-10
-0.150621
-7.07844e-10
-0.150621
-1.22845e-09
-0.150621
-1.68369e-09
-0.150621
-2.2763e-09
-0.150621
-2.67862e-09
-0.150621
-1.86604e-09
-0.150621
7.87666e-09
-0.150621
5.95815e-08
-0.150621
2.87233e-07
-0.150621
1.02921e-06
-0.150621
2.75393e-06
-0.150621
3.49689e-06
-0.150621
3.72489e-06
-0.150621
4.66794e-06
-0.150621
6.06254e-06
-0.150621
6.55955e-06
-0.150621
2.14648e-06
-0.150621
6.90087e-07
-0.150621
2.11508e-07
-0.150621
5.5409e-08
-0.150621
1.43809e-08
-0.150621
3.66641e-09
-0.150621
9.26727e-10
-0.150621
2.26457e-10
-0.150621
5.34585e-11
-0.150621
1.19856e-11
-0.150621
2.42642e-12
-0.150621
3.68677e-13
-0.150621
1.0103e-14
-0.150621
-3.20022e-14
-0.150621
-3.7359e-14
-0.150621
-2.60902e-14
-1.07137e-14
-0.150621
3.22783e-08
-0.150621
2.71839e-08
-0.150621
3.10384e-08
-0.150621
2.63747e-08
-0.150621
2.45599e-08
-0.150621
1.31367e-08
-0.150621
6.16294e-09
-0.150621
3.20647e-09
-0.150621
1.64081e-09
-0.150621
7.99217e-10
-0.150621
3.51279e-10
-0.150621
1.534e-10
-0.150621
6.82489e-11
-0.150621
2.94888e-11
-0.150621
9.19032e-12
-0.150621
-8.28035e-11
-0.150621
-3.69857e-10
-0.150621
-8.80102e-10
-0.150621
-1.41053e-09
-0.150621
-1.82592e-09
-0.150621
-2.36391e-09
-0.150621
-2.51662e-09
-0.150621
-8.22284e-10
-0.150621
1.38399e-08
-0.150621
8.68579e-08
-0.150621
4.04665e-07
-0.150621
1.39947e-06
-0.150621
3.32514e-06
-0.150621
3.87636e-06
-0.150621
4.12119e-06
-0.150621
5.2053e-06
-0.150621
6.95444e-06
-0.150621
7.84302e-06
-0.150621
2.49554e-06
-0.150621
7.85597e-07
-0.150621
2.37823e-07
-0.150621
5.96045e-08
-0.150621
1.51354e-08
-0.150621
3.78247e-09
-0.150621
9.53787e-10
-0.150621
2.32708e-10
-0.150621
5.50435e-11
-0.150621
1.24174e-11
-0.150621
2.51354e-12
-0.150621
3.62599e-13
-0.150621
1.91513e-15
-0.150621
-3.72757e-14
-0.150621
-4.52416e-14
-0.150621
-2.83107e-14
-1.21014e-14
-0.150621
3.17602e-08
-0.150621
2.60617e-08
-0.150621
3.02006e-08
-0.150621
2.62714e-08
-0.150621
2.46922e-08
-0.150621
1.37698e-08
-0.150621
6.15356e-09
-0.150621
3.44971e-09
-0.150621
1.76267e-09
-0.150621
8.33877e-10
-0.150621
3.78182e-10
-0.150621
1.57348e-10
-0.150621
7.00482e-11
-0.150621
3.01392e-11
-0.150621
8.18546e-12
-0.150621
-1.44758e-10
-0.150621
-5.1705e-10
-0.150621
-1.07852e-09
-0.150621
-1.59165e-09
-0.150621
-1.93316e-09
-0.150621
-2.29372e-09
-0.150621
-2.25591e-09
-0.150621
7.803e-10
-0.150621
2.23728e-08
-0.150621
1.27005e-07
-0.150621
5.66718e-07
-0.150621
1.87481e-06
-0.150621
3.84909e-06
-0.150621
4.24217e-06
-0.150621
4.63489e-06
-0.150621
5.70564e-06
-0.15062
7.81678e-06
-0.150621
9.61438e-06
-0.150621
2.87137e-06
-0.150621
8.45582e-07
-0.150621
2.44001e-07
-0.150621
5.13448e-08
-0.150621
1.15474e-08
-0.150621
2.595e-09
-0.150621
6.25947e-10
-0.150621
1.44193e-10
-0.150621
3.20035e-11
-0.150621
6.73253e-12
-0.150621
1.11057e-12
-0.150621
-5.3383e-14
-0.150621
-8.54921e-14
-0.150621
-4.89434e-14
-0.150621
-4.67518e-14
-0.150621
-2.74167e-14
-1.50096e-14
7.45574
1.16955e-14
2.5894
4.86634
4.06428
3.39146
4.04997
3.40577
3.91886
3.53688
7.45574
-6.35726
6.35726
6.39537
-6.39537
-6.50148
6.50148
-6.58921
6.58921
6.53891
-6.53891
6.51654
-6.51654
6.50645
-6.50645
6.5301
-6.53009
6.6731
-6.67231
6.74333
-6.74386
6.73458
-6.73366
6.72624
-6.72662
6.71677
-6.7168
6.71046
-6.71046
6.70926
-6.70926
6.71197
-6.71197
6.71943
-6.71943
6.72515
-6.72515
6.71754
-6.71754
6.70519
-6.70519
6.69427
-6.69427
6.63561
-6.63561
6.4654
-6.4654
6.61361
-6.61361
-7.45574
-2.522
-4.93374
-4.08574
-3.36999
-3.96449
-3.49124
-4.13533
-3.32044
-60.139
0.000191189
222.886
-55.3969
17.0338
19.3333
-4.95074
2.91211
-101.395
59.6292
1.70042
-9.83461
6.4044
0.11027
-4.33897
4.40024
-0.433332
-27.5354
4.70047
-0.149903
-5.20497
1.17153
-0.523294
-3.45034
6.03974
0.282642
-4.85495
6.28708
-0.0207703
-4.51526
4.01987
-0.00747375
-74.1941
100.135
-0.0139531
-5.30975
6.19221
0.257987
-5.84564
7.51267
-0.014323
-13.6971
4.6132
-0.590368
-15.8875
20.1319
-0.0179779
-6.77254
4.27742
-0.188957
-2.73167
3.9429
-0.277612
-0.484161
0.238435
1.02205
-0.383204
0.315529
0.137434
-0.535488
0.409532
-0.280753
-0.204839
0.138567
0.152647
-0.957127
0.130969
1.01189
-0.266929
0.280943
-0.00178731
-0.00472673
0.234759
-0.273292
2.06586
1.26624
-3.33215
0.993252
-0.629998
-0.560357
0.907765
0.837685
-0.643269
1.14385
-1.28489
1.97137
-1.5902
2.37662
-1.87652
2.89351
-2.38097
3.41949
-3.10811
1.95692
-2.12672
1.33539
-1.94917
1.17183
-2.42924
0.0043511
-0.236371
0.00939566
0.016512
-0.0740478
-0.0225707
0.123695
-1.44711
1.44616
-0.000371161
-1.81253
1.81253
8.20725e-07
2.28517
-2.28517
-6.65843e-10
2.80432
-2.80432
-7.13024e-10
-3.55054
3.55054
-4.334e-11
-4.50692
4.50692
-1.23364e-13
-5.72963
5.72963
-1.24596e-13
-6.53303
6.53303
1.46232e-14
1.09848
-9.97773
-0.456719
-0.0158846
-4.11511
6.70451
3.34062
7.4049
4.06631
3.38942
7.45777
7.43939
3.40908
4.04666
3.07862
4.37712
6.64291
-6.64291
6.38768
-6.38768
6.57634
-6.57634
-6.56587
6.56587
-6.52339
6.52339
-6.5139
6.5139
-6.50329
6.50329
-6.59555
6.59561
-6.72281
6.72384
-6.74527
6.74451
-6.73469
6.73469
-6.72224
6.7222
-6.71845
6.71845
-6.71287
6.71287
-6.71174
6.71174
-6.72131
6.72131
-6.72169
6.72169
-6.71732
6.71732
-6.71265
6.71265
-6.70677
6.70677
-6.67597
6.67597
-6.55698
6.55698
-6.4767
6.4767
-0.0128781
-6.19075
6.19075
-4.46275
-2.99299
-3.51308
-3.94265
-3.45344
-4.0023
-0.113794
-2.50666
-4.95689
-37.6463
25.3561
-19.0762
5.07004
-0.00964155
0.804745
5.45542
-7.68209
0.979654
10.3333
-7.5252
2.27959
8.29886
-7.44224
0.716059
4.5098
-4.55888
-1.23657
10.0381
-4.90565
0.225743
132.43
-74.7365
0.833865
5.00059
-5.171
-0.313524
2.81248
-4.27854
-0.16264
3.50015
-4.26903
-0.383966
39.3015
-25.3993
0.0879951
21.963
-15.443
0.0217639
6.0633
-3.70965
-0.0502768
26.5505
-13.4194
-0.00222894
3.77316
-2.60913
-0.0525228
6.93455
-5.13287
-0.0518392
1.1634
-1.97735
0.301284
0.115524
-0.293275
0.674819
0.328138
-0.512681
0.668668
1.6325
-0.0862628
-1.33742
0.236483
-0.948175
0.433191
-0.0417523
-0.959145
1.11311
0.431399
0.449429
0.486829
0.449645
0.354016
0.346445
0.710025
0.738051
1.01022
1.09815
-1.12821
-0.760657
-0.776613
-2.67942
1.27882
-1.26622
-0.00411353
1.62586
-1.62583
2.86613e-05
-2.03818
2.03818
3.45066e-08
0.246989
-2.59944
2.59944
-2.64054e-09
0.204882
3.07029
-3.07029
-1.56308e-10
3.99718
-3.99718
-5.00161e-13
5.08862
-5.08862
-4.85336e-13
6.40825
-6.40825
4.28198e-14
0.922704
7.32793
7.45242
6.6155
0.00768167
-0.0748586
0.0233462
0.015514
0.0026359
0.00316428
-0.0653878
-0.0505394
-0.00320197
0.00101268
0.00390947
-0.00170126
-0.00241105
-0.00248533
-0.00933851
-0.00225931
0.00783229
0.00489518
-0.00158152
0.0183004
0.0786241
-0.0112966
0.422868
-7.59883
-7.41793
-6.64366
0.214088
5.07727
1.70122
-0.152573
-2.56163
-0.462154
-0.221996
-1.76396
-1.65728
-0.0111895
-0.248635
0.00177253
-0.178929
-0.429462
-1.63914
-1.61112
0.534847
0.108829
0.885477
0.0113533
-0.754835
-0.603961
2.6727
1.02933
0.179148
0.22565
0.314271
0.265966
0.446636
0.581706
0.678623
0.00685326
0.00745597
-0.0268026
-0.0763626
-0.0196432
0.0103889
0.00813649
0.0053422
0.00797443
0.00361461
-0.000225963
0.00188276
-0.00346428
-0.000225931
0.00745574
0.0125015
0.0403664
0.0915775
-0.136914
-7.83274
-7.4339
-7.32274
-6.1043
-14.0373
-0.0677521
-0.496818
-1.1069
-0.653497
-1.25809
-0.00577153
-0.267169
-0.15033
-0.366969
-1.61728
-1.18114
0.249554
0.285831
0.161036
-0.727009
-0.549779
0.247546
0.0269611
-0.285653
-7.92673
0.462169
0.53978
0.346658
0.124782
0.641005
0.509739
0.186684
0.170819
0.480255
3.70844
3.69646
4.53098
2.08452
5.4756
3.86599
3.58644
6.22449
-6.2168
-4.16595
-3.76078
-3.78699
-6.53401
6.56097
6.56647
-6.64133
16.3181
-21.2441
6.60141
-6.57807
0.0674029
-4.24375
-3.35508
-6.51609
6.51873
6.49271
-6.48952
6.50247
-6.56747
-6.75845
6.70994
6.7624
-6.73311
6.71287
-6.72785
-6.72899
6.73358
6.71932
-6.72135
6.71112
-6.71357
6.71528
-6.71777
6.71604
-6.72538
6.72869
-6.73095
-6.72937
6.7372
-6.71604
6.72093
6.70783
-6.70941
6.71543
-6.69713
-6.60684
6.68546
-6.35379
6.3425
-4.34112
-3.49162
-8.50707
-7.73536
-6.63335
6.62047
-0.0668757
0.0423998
25.333
-21.8148
-5.94998
-3.73035
-3.68758
-2.23506
-4.49656
30.3528
-21.4562
-6.52038
6.40659
-0.295895
-0.234743
-2.13181
2.02138
-7.6355
7.76028
-36.212
27.9403
10.3338
-31.5014
41.591
-0.0450756
-26.5399
25.9202
9.03667
-11.7561
4.03923
7.53658
-4.88795
-3.95136
4.79709
-2.81604
3.55736
-4.64434
2.49734
-1.40956
7.22415
-7.35712
2.47157
-36.7727
3.49148
-6.15629
2.34261
-10.5689
5.68606
4.28756
-7.37928
-7.29044
5.21115
6.31905
-5.19447
4.53986
-4.98709
-1.92956
1.4803
1.14846
-0.784351
-0.829385
0.130559
0.0320486
6.40342
-6.15588
0.186619
1.2947
-0.840746
-0.748216
1.20785
-1.20585
1.12816
-0.773197
0.412001
0.506911
2.49324
-2.24626
1.73996
-1.56075
3.75158
-3.27132
-2.0109
2.23655
0.482348
-1.34475
1.51272
0.393957
-3.09661
3.36257
0.654968
-2.84701
3.0519
0.51556
5.30295
-4.72124
-1.7866
1.97327
0.449952
6.65397
-5.97535
-4.20914
4.71888
1.09381
6.51985
-6.513
0.00376583
-5.26834
5.90934
1.38564
5.78904
1.52731
-1.20291
-2.54096
3.27979
3.74836
-3.05786
3.82128
-2.817
2.69159
-1.5709
0.427829
-1.56877
-1.18506
0.455516
0.189116
-2.90184
-1.00657
-0.952224
-6.81258
6.82114
-0.307084
3.60037
3.72757
7.46636
8.25855
-9.24925
14.8739
2.75665
7.56012
-7.54777
-28.3466
0.708692
-0.73309
0.128079
0.61571
-1.84646
6.70178
0.00170527
6.73763
3.68735
3.75204
7.27379
0.308639
-4.85638
6.7689
0.00544817
6.77301
6.51044
0.0505334
6.52595
-0.832308
10.2296
1.1881
7.27446
-6.50796
6.51542
-6.4936
6.46691
-6.67938
6.60408
6.74136
-6.76478
0.018143
0.0190854
-6.7371
6.73426
-6.71911
6.72692
-6.71408
6.71769
-6.71122
6.71099
-6.72809
6.72997
6.72289
-6.72635
6.71913
-6.71935
-6.71476
6.72221
-6.71024
6.72274
6.70956
-6.66919
6.57543
-6.48386
6.37345
-6.51036
-7.1249
-0.694221
-0.177273
3.67139
-7.40174
-3.65136
-3.9669
-3.46699
-8.14902
-7.32199
0.0107712
-7.15457
-0.000781
1.78493
17.6808
-17.5529
-8.34949
0.00430315
-8.39399
5.39808
-7.75665
1.41734
-0.0194587
5.84071
-3.38683
1.89113
-3.95787
2.4831
-3.68667
2.68778
-4.63444
2.02181
-2.97157
15.8964
-4.80241
26.2292
-2.35871
12.1666
-4.74909
5.92262
-1.65683
5.00667
5.14051
-6.19946
-6.13225
7.01533
-5.83313
5.28088
-1.38339
3.74571
-0.670445
0.363084
-0.991961
0.00308773
-0.0064767
0.692055
4.85805
1.11859
0.412532
-0.0436323
0.0129535
3.8934
3.56437
7.60184
7.31641
2.52515
0.526752
-0.00147733
2.83942
-3.74248
4.18911
8.55452
0.9764
1.27297
1.96155
0.749261
-0.0991181
-1.13586
1.48687
-1.01465
0.721499
-0.751448
-0.379662
-1.00033
0.629695
0.221639
-0.831694
0.917794
0.59316
-0.857874
-1.27308
0.577256
-0.947048
-1.79467
-0.348017
-0.304777
-3.09667
-1.14341
-0.209481
-3.50862
0.102723
-0.0532905
0.120956
0.156738
-0.167867
0.201606
0.0462406
-0.00240994
0.00617546
0.0178486
0.00233453
-0.0120509
0.00406372
-0.00301345
-8.212e-05
-0.000979483
0.0256056
-0.0143862
0.0128028
-8.61352e-05
0.0010796
-0.150988
-0.100111
0.0259181
-0.0624047
0.0132297
0.0104842
-0.120693
-1.00638
-0.309581
-0.391324
-0.332043
-2.14426
1.83201
-0.0103823
0.196639
0.210508
-1.23751
-0.636015
16.977
-14.6093
7.10971
-5.80339
-6.62693
6.63606
-6.74232
6.75133
-6.5073
6.51809
-6.75917
6.89554
-5.56318
7.34812
2.99133
-4.22492
-3.17682
-6.47445
6.37332
6.70908
-6.83764
-0.11395
-6.5294
6.88343
-6.49312
6.54365
3.0122
-2.41904
5.66564
-9.04848
-6.75362
6.75264
-6.78987
6.80637
6.82411
-6.827
0.0164553
-6.73261
6.74541
-6.73558
6.73961
-6.7384
6.76401
6.75068
-6.76273
-0.00294351
-0.937195
1.5793
6.75475
-6.76122
6.74665
-6.74702
0.0108317
6.75189
-6.74571
0.0192795
6.73908
-6.75347
-0.0236655
6.74232
-6.74473
0.00391614
11.0715
-10.5367
0.744196
-1.57756
-6.58733
6.78894
1.23841
-1.48303
-6.0814
5.91353
-3.21244
-4.10954
1.29248
-0.734241
6.43813
-6.43872
-0.0349227
-2.00142
-6.1483
-6.22636
-6.99848
6.89241
-6.99955
0.0103179
6.6353
-6.62715
0.0180965
-7.76281
6.76552
0.0227851
-3.89061
-3.26396
-7.10306
-6.44078
6.60428
-6.53687
0.111158
-11.3645
10.0461
0.164286
-6.79742
6.41797
0.0167505
-14.0705
19.0637
4.21634
-5.80732
-10.8037
10.1347
-8.53316
8.93001
0.152404
-5.87711
6.88808
0.11969
6.80167
-6.69894
0.214334
-8.06383
9.07249
5.45439
-7.46072
-3.3219
5.36885
-4.28023
22.9579
-9.26893
4.76474
-6.04088
2.58116
-3.07871
0.494072
-1.16946
-6.37421
5.24678
-1.20951
6.58176
-6.36012
0.500363
4.64252
-6.92378
5.79232
-5.35491
-4.80544
4.06787
6.74993
-6.74684
0.00421739
-5.70198
5.8886
-5.4193
15.4223
0.0123371
-4.92463
6.11273
0.519716
6.73012
-6.57659
0.00623692
-5.41776
6.53635
2.84079
0.834365
1.80272
-1.40947
3.8207
-3.16574
1.57737
-0.235445
-3.06316
3.57872
0.757548
-2.77802
3.30477
0.800701
-6.48834
6.40686
0.284849
6.53899
-6.53522
0.0317144
6.70866
-5.32302
1.78403
2.0251
1.45466
-1.15024
0.48746
0.652537
4.93073
-3.95433
-0.502963
1.2238
1.91751
-0.655791
0.4611
-1.46563
4.31324
-3.39545
1.14751
1.53528
-8.17263
6.74241
-2.20139
6.46828
-6.79821
-0.538841
-0.413638
-6.66385
5.9124
-0.750318
-2.59467
0.561662
-1.70849
0.958688
-1.07887
0.475553
-0.519381
5.55791
-4.4641
1.60359
1.64862
2.06217
-1.61221
2.3889
-1.90655
6.5009
-6.67988
-0.356047
3.15851
-3.50456
-0.96307
-1.30608
-6.43279
7.21072
0.0226944
-1.12538
0.522816
-0.587406
3.58621
3.68758
-0.968238
0.428818
-0.0139423
4.47736
3.12448
-1.11266
6.75678
-0.00203351
6.77463
3.21531
4.25105
6.80151
7.09184
0.0137932
-6.49881
6.52477
0.019322
0.00453735
-0.300902
0.000677794
-6.93493
6.85932
6.74585
-6.74954
-1.81984
1.54954
0.512617
-0.0114727
0.568856
-6.7668
6.76913
-0.00186426
-6.725
6.77124
-2.43886
-1.41421
6.69103
-6.75791
0.0144026
0.0862175
0.695437
6.47587
0.0677801
6.48883
-14.4159
0.0712818
-12.1832
22.1174
-26.2179
7.09888
-5.61208
0.000273821
0.79717
0.020927
-3.78047
0.0364587
-4.94446
10.2423
-9.73274
-0.505432
0.456766
9.17941
-9.68355
4.08932
-25.7447
-2.72776
4.39139
-5.21093
-0.718046
0.0557449
-1.36659
5.09264
-0.76083
5.69571
0.0277895
-1.6719
0.865488
6.50389
-0.615287
6.20799
-0.693882
-0.853643
1.35349
0.679223
-6.61279
6.65519
0.0782476
0.118313
1.09117
-0.763561
0.285311
0.513384
0.734364
1.9621
0.552663
1.01888
-0.0141615
0.255617
-1.2768
-1.21008
-0.797697
0.776689
6.55969
-6.79444
-0.198217
-4.71444
-3.02093
-7.30911
-7.13047
-0.686801
-0.315736
-0.177483
-0.0778085
-1.39444
0.0390108
0.033964
0.0079074
0.0722981
0.00630954
-0.0463899
0.0323741
1.70639
-0.193962
0.00136048
-1.81625
0.847567
6.81843
-6.81819
-6.78721
6.82622
-6.81458
6.82223
-6.78893
6.79588
-6.81568
6.81243
3.85332
-32.3235
-6.74864
7.57942
7.12266
-41.6517
7.46869
2.31725
-1.54056
-6.67474
7.43308
-6.49656
6.51659
-7.49739
1.27101
-8.03637
-6.67686
6.97692
17.6599
-11.6486
6.27924
-6.04528
0.0376885
-6.52816
6.2466
-5.91013
7.50207
0.0999546
5.04207
-8.27066
-1.79876
2.31137
0.518491
6.73245
-6.51601
0.0545538
6.92408
-7.07292
0.00856563
-6.78472
6.804
6.7865
-6.81013
-0.0293081
6.80061
-6.79669
0.0134053
-2.38698
0.692774
-6.55804
6.98685
-7.60999
5.33338
9.57347
-9.81677
-6.42327
6.37689
3.14549
-4.1392
-38.9377
61.365
0.634475
6.68894
-7.29602
-0.00869591
6.79391
-6.79323
-0.00278649
7.54279
-7.85865
0.0131127
-19.8119
6.84091
-0.00129635
9.04293
-11.3957
3.52918
-2.81369
-1.29885
2.12963
-6.69558
6.72236
-0.0156019
4.96424
-5.50722
-1.3629
-1.27222
7.03999
-7.00548
-0.00656207
6.39271
-6.37503
0.00190383
6.78679
-6.80109
-0.0234994
0.437084
-1.21761
-3.61395
3.19194
-2.62292
6.47183
-6.40403
0.0485849
6.91574
-6.80036
6.97044
-6.7561
0.4124
17.9542
-13.027
5.04808
-5.1601
-14.0501
12.8651
-0.0163048
8.15506
-5.18084
-6.80182
6.82961
-9.90222
8.68557
-0.100839
2.01012
-1.17465
-21.0051
28.9713
-0.00607558
-6.79953
6.84781
0.0154559
4.04711
3.2693
7.17159
6.95688
6.422
-6.54028
0.00354581
3.79136
-2.99065
-6.70763
6.99017
0.205798
6.49289
-6.46101
-0.00340069
-9.49425
13.3864
0.25899
6.81409
-6.81613
0.0122746
2.27458
-1.23738
6.84269
-7.09771
-0.318505
6.80376
-6.81811
-0.0112159
-6.78524
6.80437
-0.0139725
6.79918
-6.79496
0.0144596
-6.79961
6.81015
-0.00353511
1.07375
-1.44722
-6.55825
4.89587
2.66835
-10.9794
-0.0958355
-0.101762
-1.50089
2.05363
0.810482
-2.03696
11.0999
0.0109461
6.23465
-6.2659
-0.282212
6.58884
-6.47768
0.184815
0.591127
-0.0138354
-4.81189
6.59592
1.67431
-3.21487
0.0861561
-1.4376
1.03303
2.75832
-1.13204
0.0107694
0.290504
-5.16976
0.0187727
-2.86837
2.55302
-0.00594822
-3.63913
-0.0389656
-1.16778
-6.69985
6.77809
-0.82087
0.00609804
0.405071
-5.28517
-2.91378
-7.33655
6.86206
-6.78977
-0.101418
3.57815
3.22336
-0.874572
1.53483
2.10922
-3.64405
0.0418109
0.807814
-0.0839557
-4.13289
5.73647
0.743801
1.3098
1.10565
-7.71905
7.29051
0.0346428
-0.00864978
0.547138
-1.65964
1.08665
1.18815
-0.900114
-6.50408
6.59034
-0.541968
0.105962
-7.83105
-0.0460382
-6.47974
0.0364503
-0.693857
-1.26851
1.73642
-0.890351
-0.382355
1.08811
1.21662
6.60751
-6.10715
2.5263
-3.74289
-0.830472
-0.586443
5.77654
-6.39183
-3.82284
-3.28022
1.89279
6.62205
-6.50374
0.144371
2.88206
4.07482
6.46021
-3.94853
0.957874
-3.19098
-5.46212
4.7118
1.1454
-2.59731
0.014241
6.96057
-4.93547
2.14868
2.53322
6.24557
-4.59695
2.11268
1.99897
0.879702
-2.22221
0.974294
5.64178
-6.05644
-2.39464
0.933335
6.86161
-7.05983
0.161767
-1.76434
1.33239
-2.38588
-1.52938
-2.72712
-3.42821
4.96349
2.30827
-2.98212
-3.66182
-3.46865
-6.25913
-7.29148
0.00396863
-1.97426
-0.00615776
-1.69746
0.331229
-1.65386
-3.82344
0.632457
-2.67593
4.45296
2.71863
6.98618
6.79346
-0.898449
2.57275
-6.0844
6.73089
4.33766
-3.30462
8.96895
-9.81555
-6.8764
6.87029
0.274356
-7.52495
7.78576
-10.1236
10.9109
-0.55704
-2.31327
0.616195
-1.56918
7.14666
-7.71251
-0.320798
3.96419
-7.89335
6.76198
-7.79435
0.0977745
-6.80504
7.54482
-3.33453
3.03449
-0.302973
-2.30015
1.0153
-3.83803
2.07351
-0.14498
7.15267
-6.97329
-1.42495
0.852396
4.50183
-2.96701
3.60339
1.37065
-6.84745
6.86086
6.91561
-6.87386
0.885726
-6.52783
6.87765
1.96204
2.743
-3.52935
-5.01911
3.02711
-6.85085
6.88541
-1.36685
2.59031
3.61873
-6.74985
-9.13433
6.70425
-7.7887
7.99037
0.108923
0.207937
6.84888
-6.85167
0.0014309
8.33734
-6.85772
0.0565041
6.86185
-6.87579
6.83594
-6.86343
6.85446
-6.84369
0.00278648
-6.10769
5.9071
2.06095
-3.98568
0.491671
-1.307
-0.86708
-0.7651
7.25254
-7.48047
-4.07819
10.3896
-0.0345003
6.23384
-9.97289
-0.138632
6.83694
-7.05488
5.07624
-23.6244
-15.8677
17.0618
0.0946049
-6.31195
6.36072
-0.922631
1.70645
-1.99429
0.726454
-1.37696
-6.35477
7.23447
-2.00171
1.11146
-6.84601
12.9196
-0.0079934
6.58947
-6.57269
0.081607
-1.01352
2.0744
7.28252
-6.87012
0.92775
-6.86223
6.8473
-0.0259217
9.40421
-8.49679
0.167458
-22.6116
54.7433
0.0842691
-8.44999
5.26426
-4.97562
0.307056
-6.86361
6.87901
-0.00180657
6.98136
-6.87539
0.111234
-6.86311