/*--------------------------------*- C++ -*----------------------------------*\
  =========                 |
  \\      /  F ield         | OpenFOAM: The Open Source CFD Toolbox
   \\    /   O peration     | Website:  https://openfoam.org
    \\  /    A nd           | Version:  6
     \\/     M anipulation  |
\*---------------------------------------------------------------------------*/
FoamFile
{
    version     2.0;
    format      ascii;
    class       volVectorField;
    location    "0.0007";
    object      U;
}
// * * * * * * * * * * * * * * * * * * * * * * * * * * * * * * * * * * * * * //

dimensions      [0 1 -1 0 0 0 0];

internalField   nonuniform List<vector> 
3704
(
(650 -1.02196e-12 0)
(650 -2.31347e-12 0)
(650 -3.07903e-12 0)
(650 -4.95852e-12 0)
(650 -1.12232e-11 0)
(650 -3.57686e-11 0)
(650 -1.28647e-10 0)
(650 -4.55713e-10 0)
(650 -1.52041e-09 0)
(650 -4.68533e-09 0)
(650 -1.28428e-08 0)
(650 -1.13845e-08 0)
(650 8.94181e-08 0)
(650 6.63295e-07 0)
(650 3.0475e-06 0)
(650 1.08574e-05 0)
(650 3.47125e-05 0)
(650 -6.21196e-05 0)
(650 -0.00014149 0)
(650 7.65392e-05 0)
(650 4.48749e-05 0)
(650 -0.000366428 0)
(650 -0.000390354 0)
(650 -0.000196534 0)
(650 -3.65884e-05 0)
(650 -7.43268e-06 0)
(650 -1.50444e-06 0)
(650 -3.45473e-07 0)
(650 -1.05738e-07 0)
(650 -3.57571e-08 0)
(650 -1.06549e-08 0)
(650 -2.39558e-09 0)
(650 -1.66202e-10 0)
(650 3.47193e-10 0)
(650 7.40602e-10 0)
(650 1.05231e-09 0)
(650 1.76982e-09 0)
(650 3.20687e-09 0)
(650 6.25418e-09 0)
(650 1.24567e-08 0)
(650 2.49294e-08 0)
(650 5.13049e-08 0)
(650 1.07479e-07 0)
(650 2.28063e-07 0)
(650 4.80718e-07 0)
(650 8.21062e-07 0)
(650 1.09413e-06 0)
(650 1.33068e-06 0)
(650 1.23191e-06 0)
(650 7.8359e-07 0)
(650 -1.12355e-12 0)
(650 -2.19467e-12 0)
(650 -3.16706e-12 0)
(650 -5.38213e-12 0)
(650 -1.26792e-11 0)
(650 -3.88622e-11 0)
(650 -1.37216e-10 0)
(650 -4.76215e-10 0)
(650 -1.5562e-09 0)
(650 -4.69345e-09 0)
(650 -1.20794e-08 0)
(650 -2.562e-10 0)
(650 1.39819e-07 0)
(650 8.82005e-07 0)
(650 3.91016e-06 0)
(650 1.43097e-05 0)
(650 5.95191e-05 0)
(650 -7.29138e-05 0)
(650 -0.000266599 0)
(650 9.61175e-05 0)
(650 0.000138731 0)
(650 -0.000354466 0)
(650 -0.000454172 0)
(650 -0.000260377 0)
(650 -5.19491e-05 0)
(650 -1.06644e-05 0)
(650 -2.16209e-06 0)
(650 -4.82632e-07 0)
(650 -1.4536e-07 0)
(650 -5.02267e-08 0)
(650 -1.56629e-08 0)
(650 -3.75644e-09 0)
(650 -4.38319e-10 0)
(650 3.4449e-10 0)
(650 8.28767e-10 0)
(650 1.17105e-09 0)
(650 2.03289e-09 0)
(650 3.63429e-09 0)
(650 7.047e-09 0)
(650 1.37747e-08 0)
(650 2.69168e-08 0)
(650 5.42771e-08 0)
(650 1.1316e-07 0)
(650 2.38843e-07 0)
(650 5.03256e-07 0)
(650 8.28687e-07 0)
(650 1.10683e-06 0)
(650 1.29727e-06 0)
(650 1.17891e-06 0)
(650 6.8338e-07 0)
(650 -1.33793e-12 0)
(650 -2.48686e-12 0)
(650 -3.2336e-12 0)
(650 -5.53476e-12 0)
(650 -1.31147e-11 0)
(650 -3.90764e-11 0)
(650 -1.3568e-10 0)
(650 -4.65754e-10 0)
(650 -1.50568e-09 0)
(650 -4.51705e-09 0)
(650 -1.05617e-08 0)
(650 5.14058e-09 0)
(650 1.58827e-07 0)
(650 9.89775e-07 0)
(650 4.52531e-06 0)
(650 1.78218e-05 0)
(650 9.42579e-05 0)
(650 -6.05836e-05 0)
(650 -0.000420093 0)
(650 6.7846e-05 0)
(650 0.000261008 0)
(650 -0.000327195 0)
(650 -0.000529281 0)
(650 -0.000316962 0)
(650 -7.09977e-05 0)
(650 -1.47171e-05 0)
(650 -3.00053e-06 0)
(650 -6.53045e-07 0)
(650 -1.92574e-07 0)
(650 -6.7476e-08 0)
(650 -2.18895e-08 0)
(650 -5.55423e-09 0)
(650 -8.0802e-10 0)
(650 3.25343e-10 0)
(650 9.07602e-10 0)
(650 1.26854e-09 0)
(650 2.28575e-09 0)
(650 4.01916e-09 0)
(650 7.77659e-09 0)
(650 1.49729e-08 0)
(650 2.87764e-08 0)
(650 5.65669e-08 0)
(650 1.18079e-07 0)
(650 2.47832e-07 0)
(650 5.225e-07 0)
(650 8.36936e-07 0)
(650 1.11592e-06 0)
(650 1.28066e-06 0)
(650 1.13826e-06 0)
(650 5.73604e-07 0)
(650 -1.36888e-12 0)
(650 -2.85801e-12 0)
(650 -3.25872e-12 0)
(650 -5.5494e-12 0)
(650 -1.28646e-11 0)
(650 -3.78858e-11 0)
(650 -1.29068e-10 0)
(650 -4.37853e-10 0)
(650 -1.4032e-09 0)
(650 -4.23164e-09 0)
(650 -8.8483e-09 0)
(650 7.62857e-09 0)
(650 1.61091e-07 0)
(650 1.03714e-06 0)
(650 5.02125e-06 0)
(650 2.19003e-05 0)
(650 0.000146544 0)
(650 7.10074e-06 0)
(650 -0.000597179 0)
(650 -5.20943e-05 0)
(650 0.000432933 0)
(650 -0.000265728 0)
(650 -0.000619344 0)
(650 -0.000374391 0)
(650 -9.56096e-05 0)
(650 -2.02021e-05 0)
(650 -4.13556e-06 0)
(650 -8.78822e-07 0)
(650 -2.52003e-07 0)
(650 -8.8872e-08 0)
(650 -2.98327e-08 0)
(650 -7.97139e-09 0)
(650 -1.33175e-09 0)
(650 2.79806e-10 0)
(650 9.7998e-10 0)
(650 1.3496e-09 0)
(650 2.55941e-09 0)
(650 4.41554e-09 0)
(650 8.50308e-09 0)
(650 1.617e-08 0)
(650 3.0808e-08 0)
(650 5.83211e-08 0)
(650 1.22685e-07 0)
(650 2.56542e-07 0)
(650 5.37943e-07 0)
(650 8.45738e-07 0)
(650 1.12141e-06 0)
(650 1.27624e-06 0)
(650 1.10227e-06 0)
(650 4.60322e-07 0)
(650 -1.29544e-12 0)
(650 -2.99997e-12 0)
(650 -3.28348e-12 0)
(650 -5.36007e-12 0)
(650 -1.16591e-11 0)
(650 -3.34285e-11 0)
(650 -1.14068e-10 0)
(650 -3.87142e-10 0)
(650 -1.25189e-09 0)
(650 -3.90572e-09 0)
(650 -9.1456e-09 0)
(650 -6.07441e-10 0)
(650 1.23267e-07 0)
(650 9.60128e-07 0)
(650 5.18083e-06 0)
(650 2.58306e-05 0)
(650 0.000218226 0)
(650 0.000183457 0)
(650 -0.000747004 0)
(650 -0.000240844 0)
(650 0.000632857 0)
(650 -0.000159804 0)
(650 -0.000717075 0)
(650 -0.000433288 0)
(650 -0.000122475 0)
(650 -2.72505e-05 0)
(650 -5.60881e-06 0)
(650 -1.17162e-06 0)
(650 -3.26309e-07 0)
(650 -1.15535e-07 0)
(650 -3.99886e-08 0)
(650 -1.11915e-08 0)
(650 -2.06441e-09 0)
(650 1.92572e-10 0)
(650 1.03141e-09 0)
(650 1.39476e-09 0)
(650 2.81533e-09 0)
(650 4.78551e-09 0)
(650 9.12352e-09 0)
(650 1.72781e-08 0)
(650 3.28385e-08 0)
(650 5.92651e-08 0)
(650 1.26787e-07 0)
(650 2.65541e-07 0)
(650 5.50438e-07 0)
(650 8.53375e-07 0)
(650 1.11914e-06 0)
(650 1.28519e-06 0)
(650 1.07928e-06 0)
(650 3.58314e-07 0)
(141.337 23.8809 8.11432e-20)
(416.726 197.648 -3.29323e-20)
(448.343 207.753 -9.51303e-20)
(494.684 83.5729 2.74015e-17)
(664.32 312.566 -3.08996e-18)
(632.986 262.521 4.87586e-17)
(566.847 56.9066 0)
(488.35 -103.688 -2.72033e-18)
(417.944 -167.383 8.79711e-19)
(346.092 -183.096 7.33383e-17)
(265.635 -205.191 2.72905e-18)
(218.436 -163.144 -9.42202e-17)
(149.415 -80.2417 -7.61157e-17)
(10.1506 -67.555 0)
(12.8036 -150.605 4.79821e-18)
(138.107 31.5132 0)
(384.388 199.486 -1.1223e-17)
(409.182 228.396 0)
(489.467 175.258 -2.00622e-17)
(594.48 462.685 -8.62027e-17)
(669.049 297.116 -4.61379e-17)
(606.067 57.5294 -2.41132e-17)
(494.692 -111.438 1.15138e-18)
(418.233 -168.758 2.5932e-17)
(339.548 -194.48 -3.58328e-17)
(289.809 -230.986 -7.00197e-17)
(264.887 -178.197 -2.2672e-18)
(197.296 -100.616 6.49899e-17)
(11.3864 -55.2698 0)
(5.3744 -139.57 4.57538e-18)
(141.515 61.3614 0)
(314.846 262.988 8.39904e-18)
(325.483 314.236 -2.07618e-17)
(441.211 224.746 0)
(513.384 380.13 9.78262e-17)
(678.634 198.435 4.54629e-17)
(628.243 17.9471 2.1167e-17)
(494.679 -120.914 1.49486e-18)
(406.02 -174.147 -2.6844e-17)
(342.583 -218.045 -6.82506e-17)
(310.088 -225.47 1.40994e-16)
(307.969 -172.056 6.69847e-17)
(254.66 -105.946 5.56397e-17)
(11.8495 -34.5434 2.0707e-17)
(-2.51672 -135.071 -2.25964e-18)
(154.314 136.429 0)
(247.565 355.006 -1.39644e-17)
(341.634 307.685 1.45974e-17)
(437.613 210.045 3.14775e-19)
(492.183 282.951 6.3607e-18)
(656.924 168.654 -8.54945e-17)
(630.969 -16.4673 2.12039e-17)
(490.637 -148.211 1.52811e-18)
(395.007 -191.063 -5.66373e-17)
(356.395 -222.994 6.44911e-17)
(330.714 -207.471 -1.30816e-16)
(339.878 -165.543 -1.17639e-18)
(308.645 -107.736 -1.47665e-18)
(9.85168 -3.34227 1.21247e-18)
(-12.1193 -132.717 -2.34466e-18)
(188.961 256.767 0)
(293.679 393.549 1.73069e-17)
(392.155 297.072 1.95417e-19)
(445.63 180.705 0)
(516.514 216.087 -3.60085e-17)
(647.998 134.692 8.19074e-17)
(627.036 -45.0089 -2.01044e-17)
(493.145 -175.559 -9.97735e-19)
(400.822 -202.651 7.76138e-17)
(357.829 -225.223 8.38262e-19)
(339.964 -199.997 6.15449e-17)
(353.036 -165.859 -1.20496e-16)
(343.815 -112.841 -4.90076e-17)
(-3.40468 38.4585 -6.2378e-17)
(-26.1671 -131.277 4.14762e-18)
(-4.75442 38.855 0)
(6.40141 -52.2773 -1.42749e-18)
(208.531 120.447 -4.55071e-18)
(273.785 188.207 9.65413e-17)
(298.684 244.408 0)
(394.281 219.535 8.33149e-17)
(468.418 161.457 3.35257e-17)
(464.965 153.612 -7.15513e-19)
(493.746 141.591 -2.55601e-19)
(515.706 -98.4558 3.20505e-19)
(534.956 -292.1 2.22629e-18)
(406.048 -304.171 9.04871e-17)
(482.55 -192.3 -2.27712e-19)
(84.5196 -214.943 0)
(-55.817 -221.725 -1.25302e-17)
(-5.90227 44.6041 0)
(21.3026 -47.4998 0)
(260.297 121.733 -7.51258e-17)
(331.139 178.384 -7.87635e-17)
(318.12 266.142 -1.2111e-18)
(372.496 251.966 4.02552e-18)
(478.496 115.952 3.69161e-17)
(486.527 111.515 -1.82148e-19)
(497.096 103.05 1.33176e-17)
(521.865 -94.2971 3.47244e-17)
(549.856 -344.886 0)
(381.488 -435.054 -3.10273e-17)
(450.535 -232.811 2.3502e-17)
(151.883 -280.248 2.53944e-19)
(-38.6326 -173.129 0)
(-8.07582 50.8603 0)
(35.6218 -54.763 -1.03644e-18)
(315.32 117.782 9.86296e-19)
(370.345 164.926 -6.47528e-17)
(344.997 240.835 0)
(376.743 256.683 -7.45456e-17)
(444.094 162.941 -9.69476e-17)
(486.116 125.502 0)
(518.38 73.7672 -1.40102e-17)
(568.171 -103.521 5.07283e-18)
(593.613 -293.099 -9.61884e-19)
(392.433 -384.502 5.41003e-19)
(373.331 -279.182 -5.18258e-17)
(174.906 -325.034 0)
(-16.6137 -160.983 0)
(-13.2042 58.7624 0)
(44.2654 -72.4742 0)
(357.596 118.677 5.84753e-17)
(390.633 159.164 6.11215e-17)
(364.921 207.857 7.00544e-17)
(387.937 252.31 -2.42652e-19)
(427.53 206.255 5.89853e-17)
(481.358 169.322 -6.96227e-19)
(522.143 86.4356 1.75934e-17)
(610.751 -74.8397 -2.6393e-17)
(600.648 -262.36 1.77464e-18)
(427.3 -336.866 -1.01655e-18)
(352.503 -278.97 1.87626e-17)
(187.965 -342.965 3.49769e-19)
(31.7191 -163.758 -6.57063e-18)
(-26.8931 67.8841 0)
(40.7346 -100.681 -9.20088e-19)
(383.734 124.288 -5.25671e-19)
(396.963 159.812 -5.90585e-17)
(372.092 200.366 -6.29661e-17)
(388.255 253.685 -1.03102e-18)
(421.592 230.759 2.7828e-17)
(475.7 203.783 6.97427e-19)
(542.026 116.627 -1.71163e-17)
(642.687 -38.5314 2.65686e-17)
(604.667 -225.835 3.42552e-17)
(472.309 -274.028 -9.33176e-19)
(374.849 -269.539 -2.19669e-17)
(208.486 -338.217 0)
(95.5343 -166.678 5.72511e-18)
(650 -3.23744e-06 0)
(650 -2.92675e-06 0)
(650 -2.9033e-06 0)
(650 -2.27981e-06 0)
(650 -1.9684e-06 0)
(650 -9.52586e-07 0)
(650 -4.5729e-07 0)
(650 -2.18627e-07 0)
(650 -1.07762e-07 0)
(650 -5.12199e-08 0)
(650 -2.29133e-08 0)
(650 -1.02195e-08 0)
(650 -4.56272e-09 0)
(650 -2.01446e-09 0)
(650 -7.828e-10 0)
(650 7.15749e-10 0)
(650 8.94374e-09 0)
(650 3.08144e-08 0)
(650 6.598e-08 0)
(650 1.07048e-07 0)
(650 1.56419e-07 0)
(650 2.34707e-07 0)
(650 2.50145e-07 0)
(650 2.51817e-08 0)
(650 -1.45625e-06 0)
(650 -8.43773e-06 0)
(650 -3.45506e-05 0)
(650 -0.000107332 0)
(650 -0.000193254 0)
(650 -0.000231395 0)
(650 -0.000284585 0)
(650 -0.000326228 0)
(650 -0.000326933 0)
(650 -0.000116791 0)
(650 -3.97468e-05 0)
(650 -1.25708e-05 0)
(650 -3.61612e-06 0)
(650 -9.89582e-07 0)
(650 -2.60721e-07 0)
(650 -6.64862e-08 0)
(650 -1.63127e-08 0)
(650 -3.82826e-09 0)
(650 -8.4539e-10 0)
(650 -1.68512e-10 0)
(650 -2.6292e-11 0)
(650 -7.09453e-13 0)
(650 2.86739e-12 0)
(650 2.8976e-12 0)
(650 2.33622e-12 0)
(650 9.25969e-13 0)
(650 -3.09196e-06 0)
(650 -2.73518e-06 0)
(650 -2.83477e-06 0)
(650 -2.27792e-06 0)
(650 -2.02731e-06 0)
(650 -1.01234e-06 0)
(650 -4.85919e-07 0)
(650 -2.34421e-07 0)
(650 -1.18185e-07 0)
(650 -5.7077e-08 0)
(650 -2.52506e-08 0)
(650 -1.12554e-08 0)
(650 -5.0147e-09 0)
(650 -2.19919e-09 0)
(650 -8.1552e-10 0)
(650 1.60571e-09 0)
(650 1.36833e-08 0)
(650 4.19669e-08 0)
(650 8.23047e-08 0)
(650 1.24118e-07 0)
(650 1.77753e-07 0)
(650 2.39137e-07 0)
(650 2.29305e-07 0)
(650 -1.86418e-07 0)
(650 -2.70818e-06 0)
(650 -1.40888e-05 0)
(650 -5.42551e-05 0)
(650 -0.000160544 0)
(650 -0.000244392 0)
(650 -0.00027036 0)
(650 -0.000335521 0)
(650 -0.000407414 0)
(650 -0.000420701 0)
(650 -0.000145423 0)
(650 -4.86647e-05 0)
(650 -1.52684e-05 0)
(650 -4.27273e-06 0)
(650 -1.15247e-06 0)
(650 -3.01646e-07 0)
(650 -7.69705e-08 0)
(650 -1.89541e-08 0)
(650 -4.48627e-09 0)
(650 -1.00448e-09 0)
(650 -2.04311e-10 0)
(650 -3.32611e-11 0)
(650 -1.99258e-12 0)
(650 2.52037e-12 0)
(650 3.13594e-12 0)
(650 2.50945e-12 0)
(650 9.73949e-13 0)
(650 -2.95529e-06 0)
(650 -2.55154e-06 0)
(650 -2.77141e-06 0)
(650 -2.27845e-06 0)
(650 -2.07575e-06 0)
(650 -1.06854e-06 0)
(650 -5.08536e-07 0)
(650 -2.49931e-07 0)
(650 -1.279e-07 0)
(650 -6.24092e-08 0)
(650 -2.73495e-08 0)
(650 -1.21278e-08 0)
(650 -5.39198e-09 0)
(650 -2.35074e-09 0)
(650 -8.29415e-10 0)
(650 3.08901e-09 0)
(650 1.97763e-08 0)
(650 5.46556e-08 0)
(650 9.87652e-08 0)
(650 1.39683e-07 0)
(650 1.92992e-07 0)
(650 2.37049e-07 0)
(650 1.92753e-07 0)
(650 -4.79751e-07 0)
(650 -4.20094e-06 0)
(650 -2.07287e-05 0)
(650 -7.61557e-05 0)
(650 -0.000212881 0)
(650 -0.000285185 0)
(650 -0.000305027 0)
(650 -0.000381372 0)
(650 -0.00048583 0)
(650 -0.000515715 0)
(650 -0.000172069 0)
(650 -5.61695e-05 0)
(650 -1.73657e-05 0)
(650 -4.66969e-06 0)
(650 -1.22986e-06 0)
(650 -3.17059e-07 0)
(650 -8.04373e-08 0)
(650 -1.97255e-08 0)
(650 -4.66566e-09 0)
(650 -1.04693e-09 0)
(650 -2.1303e-10 0)
(650 -3.36934e-11 0)
(650 -1.60555e-12 0)
(650 2.58052e-12 0)
(650 3.24865e-12 0)
(650 2.41511e-12 0)
(650 9.43039e-13 0)
(650 -2.82382e-06 0)
(650 -2.39761e-06 0)
(650 -2.70923e-06 0)
(650 -2.28144e-06 0)
(650 -2.11269e-06 0)
(650 -1.11942e-06 0)
(650 -5.24816e-07 0)
(650 -2.68505e-07 0)
(650 -1.37751e-07 0)
(650 -6.72273e-08 0)
(650 -2.95183e-08 0)
(650 -1.2925e-08 0)
(650 -5.74388e-09 0)
(650 -2.48571e-09 0)
(650 -8.1106e-10 0)
(650 5.88821e-09 0)
(650 2.83591e-08 0)
(650 7.00978e-08 0)
(650 1.16475e-07 0)
(650 1.55145e-07 0)
(650 2.04471e-07 0)
(650 2.30303e-07 0)
(650 1.28375e-07 0)
(650 -8.97295e-07 0)
(650 -6.20549e-06 0)
(650 -2.94687e-05 0)
(650 -0.000104747 0)
(650 -0.00026465 0)
(650 -0.000319395 0)
(650 -0.000338364 0)
(650 -0.00042705 0)
(650 -0.000563155 0)
(650 -0.000621147 0)
(650 -0.000200785 0)
(650 -6.37255e-05 0)
(650 -1.9379e-05 0)
(650 -4.94116e-06 0)
(650 -1.26021e-06 0)
(650 -3.18082e-07 0)
(650 -8.01848e-08 0)
(650 -1.95382e-08 0)
(650 -4.60513e-09 0)
(650 -1.03365e-09 0)
(650 -2.08718e-10 0)
(650 -3.00242e-11 0)
(650 -1.85708e-13 0)
(650 3.00078e-12 0)
(650 3.54805e-12 0)
(650 2.37077e-12 0)
(650 1.00474e-12 0)
(650 -2.75874e-06 0)
(650 -2.29159e-06 0)
(650 -2.64358e-06 0)
(650 -2.27456e-06 0)
(650 -2.13032e-06 0)
(650 -1.16217e-06 0)
(650 -5.34278e-07 0)
(650 -2.87119e-07 0)
(650 -1.46916e-07 0)
(650 -7.0672e-08 0)
(650 -3.15041e-08 0)
(650 -1.34646e-08 0)
(650 -5.99038e-09 0)
(650 -2.58433e-09 0)
(650 -7.33607e-10 0)
(650 9.62341e-09 0)
(650 3.79695e-08 0)
(650 8.46796e-08 0)
(650 1.30733e-07 0)
(650 1.64732e-07 0)
(650 2.05072e-07 0)
(650 2.1327e-07 0)
(650 2.49977e-08 0)
(650 -1.46519e-06 0)
(650 -8.84996e-06 0)
(650 -4.04345e-05 0)
(650 -0.000139241 0)
(650 -0.000309756 0)
(650 -0.000348959 0)
(650 -0.000376336 0)
(650 -0.000470557 0)
(650 -0.000636536 0)
(650 -0.000742954 0)
(650 -0.000231103 0)
(650 -7.05952e-05 0)
(650 -2.09804e-05 0)
(650 -4.91156e-06 0)
(650 -1.18637e-06 0)
(650 -2.8664e-07 0)
(650 -7.12959e-08 0)
(650 -1.70787e-08 0)
(650 -3.95905e-09 0)
(650 -8.75664e-10 0)
(650 -1.67903e-10 0)
(650 -1.62141e-11 0)
(650 3.01036e-12 0)
(650 3.64816e-12 0)
(650 3.97131e-12 0)
(650 2.39053e-12 0)
(650 1.14803e-12 0)
(650 3.43115e-12 0)
(650 -3.14907e-12 0)
(650 -2.14935e-12 1.08169e-17)
(650 2.76497e-13 -1.12521e-17)
(650 -2.57122e-13 0)
(650 -1.26255e-12 0)
(650 -3.40131e-12 1.10533e-17)
(650 -5.91254e-12 4.39726e-17)
(650 -1.58114e-11 0)
(650 -1.22451e-10 0)
(650 -2.51438e-09 -2.14552e-17)
(650 -9.44758e-08 -2.15763e-17)
(650 -5.09128e-07 -2.15827e-17)
(650 -3.29274e-06 -2.15031e-17)
(649.998 0.00429102 -2.10909e-17)
(650 -0.000881962 2.08309e-17)
(650 0.000932421 4.1843e-17)
(650 -0.0017407 4.17441e-17)
(650 -0.00013763 0)
(650 -7.41977e-06 2.09306e-17)
(650 -7.29527e-07 -4.18687e-17)
(650 -1.02082e-07 -2.09259e-17)
(650 -3.41342e-09 0)
(650 1.31429e-09 2.09178e-17)
(650 5.59706e-09 -2.09085e-17)
(650 2.31124e-08 2.0971e-17)
(650 7.53888e-08 -2.10143e-17)
(650 3.40764e-07 4.24056e-17)
(650 8.3e-07 0)
(650 1.07504e-06 0)
(650 1.03441e-06 3.76388e-17)
(650 8.36091e-07 -1.07094e-17)
(650 -5.87978e-07 -1.09672e-17)
(650 -1.81639e-06 -2.25451e-17)
(650 -3.71005e-05 0)
(653.824 2.69352 0)
(658.199 5.06984 -1.07886e-17)
(652.311 -1.13611 0)
(656.774 3.23979 1.8138e-17)
(654.769 -2.21538 -7.03082e-19)
(651.864 -4.7103 2.13334e-17)
(653.879 -0.415124 -2.16862e-17)
(647.554 -0.0796504 2.34231e-17)
(650.495 6.70991 -3.70107e-18)
(651.767 3.46599 0)
(647.101 -6.77659 4.15995e-17)
(657.221 -3.3788 0)
(646.715 2.84223 -2.35823e-17)
(647.943 -1.88344 0)
(650.982 -7.43397 -1.2582e-17)
(651.874 1.71178 -3.13377e-17)
(649.348 -4.75328 0)
(638.695 -3.36613 0)
(552.647 35.3404 4.2934e-17)
(559.761 -130.152 0)
(497.574 -128.876 6.71859e-18)
(508.938 -122.795 0)
(536.088 182.495 1.91329e-17)
(463.997 437.665 0)
(288.097 370.101 -2.02598e-17)
(470.452 417.895 1.56093e-17)
(649.768 0.0597538 -2.92476e-17)
(453.901 227.25 0)
(483.671 139.212 -3.42303e-18)
(524.866 115.271 -1.38275e-17)
(617.086 63.3303 -8.42686e-18)
(583.016 -113.101 0)
(484.113 -217.759 -1.92353e-17)
(397.606 -239.301 -1.94818e-17)
(325.57 -273.812 -1.92554e-17)
(327.375 -237.523 1.68555e-17)
(359.074 -188.077 1.8932e-17)
(368.488 -119.744 0)
(-73.7125 200.262 4.62514e-17)
(-119.703 -136.5 1.10293e-17)
(509.82 -31.2131 5.49078e-18)
(648.758 1.31375 0)
(649.99 0.00573432 9.13642e-18)
(650 2.58468e-05 0)
(650 -2.18779e-08 0)
(650 -4.41369e-09 0)
(650 -1.65878e-10 0)
(650 2.88802e-11 -1.50267e-17)
(650 1.01585e-11 0)
(650 -3.2842e-12 -7.62316e-18)
(650 9.08531e-07 -1.93567e-17)
(659.029 -2.2697 1.02776e-17)
(65.7843 -230.358 -1.88232e-16)
(650 -1.1093e-12 0)
(650 1.17082e-12 0)
(650 -3.58605e-13 -2.15287e-17)
(650 2.93472e-13 0)
(650 -8.94082e-13 1.09673e-17)
(650 3.05649e-13 -3.49695e-19)
(650 1.40259e-13 3.34205e-17)
(650 8.70515e-13 -3.37178e-17)
(650 -3.89501e-12 3.17139e-17)
(650 -7.89696e-12 -2.19885e-17)
(650 -3.66734e-11 0)
(650 -5.15549e-10 -2.13663e-17)
(650 -1.74121e-08 -2.15585e-17)
(650 -3.48206e-07 0)
(650 -2.40996e-06 4.31805e-17)
(650.001 0.000765392 2.12749e-17)
(650 -0.00130826 -2.08917e-17)
(650 -0.000413851 4.16435e-17)
(650 -0.000476994 -2.08564e-17)
(650 -0.000695462 2.08266e-17)
(650 -3.48361e-05 2.09058e-17)
(650 -1.91897e-06 -2.39365e-25)
(650 -2.99646e-07 2.09266e-17)
(650 -2.46558e-08 0)
(650 4.15621e-10 0)
(650 2.81728e-09 -2.0872e-17)
(650 1.12644e-08 0)
(650 4.14259e-08 2.10102e-17)
(650 1.70879e-07 2.11073e-17)
(650 5.77193e-07 0)
(650 7.96693e-07 -2.17562e-17)
(650 8.94045e-11 0)
(650 9.06672e-07 2.26139e-17)
(650 6.71141e-07 1.04095e-17)
(650 1.71533e-06 2.23743e-17)
(650 1.11066e-06 1.11083e-17)
(650 -1.57264e-11 0)
(649.999 -0.0767437 0)
(654.784 -5.08901 0)
(654.199 4.25313 -1.94713e-17)
(196.037 196.378 -7.37926e-16)
(653.092 -9.31 2.03586e-17)
(653.918 2.78029 2.65487e-17)
(652.582 4.04822 0)
(654.472 -2.15074 -3.44972e-19)
(651.932 -5.67137 -2.32774e-17)
(649.952 3.47092 -6.78729e-19)
(658.368 4.64903 0)
(652.226 1.05107 0)
(646.27 -6.74531 2.11827e-17)
(648.712 -7.88708 0)
(649.892 4.34494 2.45263e-17)
(652.329 -1.14451 0)
(647.838 -9.47344 0)
(654.303 -1.14503 -2.33938e-17)
(648.372 -0.151257 -2.22838e-17)
(648.649 -3.117 0)
(607.624 4.44904 0)
(503.989 -3.98633 -1.59292e-17)
(565.748 -86.8332 0)
(443.139 -164.967 0)
(561.769 33.6806 0)
(497.664 280.703 1.77234e-17)
(545.206 81.6932 -5.12142e-19)
(505.292 302.106 0)
(473.513 376.708 -1.06273e-17)
(509.383 136.091 3.11111e-18)
(608.495 63.6741 6.2211e-18)
(624.042 -66.7538 0)
(533.019 -206.708 -1.29009e-17)
(432.259 -259.03 5.59477e-17)
(345.885 -288.575 1.60455e-18)
(309.594 -298.563 -3.50482e-17)
(310.694 -268.87 -2.79103e-17)
(342.117 -201.43 0)
(345.058 -120.802 0)
(606.12 32.224 1.90189e-17)
(649.872 0.0985665 -1.15819e-17)
(649.999 0.000381598 0)
(650 -0.000123012 3.19485e-18)
(650 1.07982e-06 4.09784e-25)
(650 -5.03735e-07 1.65946e-17)
(650 -1.25655e-08 -3.87106e-27)
(650 -1.09554e-09 1.417e-17)
(650 5.16534e-11 -3.57574e-17)
(650 1.87789e-11 -2.27221e-17)
(650 5.30998e-12 0)
(650 4.96284e-15 -1.11252e-17)
(650 1.61907e-13 -1.12077e-17)
(650 -3.4004e-14 1.23944e-17)
(650 -7.13311e-12 4.22826e-20)
(650 -1.43409e-11 0)
(650 1.11384e-09 0)
(650 6.9488e-08 2.15198e-17)
(650 3.1465e-06 0)
(650 0.00010314 -2.15615e-17)
(650 0.00358371 5.99412e-23)
(649.999 -0.000590455 2.10189e-17)
(650 -0.00688587 -4.1542e-17)
(650 0.00688073 -2.08071e-17)
(650 -0.00478583 -4.17254e-17)
(650 -0.000286985 1.01967e-20)
(650 -1.58222e-05 2.0893e-17)
(650 -2.5122e-06 1.02074e-20)
(650 -3.28481e-07 4.07689e-20)
(650 -6.88581e-09 0)
(650 7.3255e-10 -2.08756e-17)
(650 5.19917e-09 2.09454e-17)
(650 3.33327e-08 -2.09972e-17)
(650 1.02346e-07 2.11315e-17)
(650 1.87665e-07 -2.1526e-17)
(650 5.89115e-07 0)
(650 1.3903e-06 0)
(650 -1.82485e-06 -2.17401e-17)
(650 -7.18501e-06 1.12518e-17)
(650.002 -0.00277171 -1.53684e-18)
(650.186 -7.04665 -7.45327e-19)
(656.052 -4.9896 -1.51587e-19)
(655.788 -4.4663 4.38708e-17)
(651.463 0.369162 -2.22874e-17)
(653.08 8.25059 2.06293e-17)
(657.554 5.92367 0)
(651.218 6.47629 -2.23758e-17)
(648.725 7.14073 -2.25508e-17)
(646.863 6.11798 -2.21992e-17)
(653.624 -1.10853 -1.91703e-17)
(648.8 -0.0853448 0)
(648.872 -0.776126 0)
(653.356 2.83332 2.88245e-17)
(649.924 2.73083 3.05309e-17)
(649.698 2.03813 0)
(626.615 12.1782 4.06839e-18)
(546.002 93.3643 -2.76453e-17)
(618.174 61.2444 0)
(459.929 -59.1098 -9.27234e-18)
(584.992 162.394 0)
(537.297 274.627 -1.47063e-17)
(649.365 1.14501 -1.20772e-20)
(389.31 -18.85 -8.00896e-18)
(649.364 -0.286816 1.22312e-17)
(649.998 -0.00202481 -3.91312e-18)
(650 -7.31997e-06 -2.08357e-17)
(650 -5.16402e-08 1.41246e-17)
(650 -2.34087e-09 -1.68297e-17)
(650 -1.64293e-10 1.54055e-17)
(650 -5.14186e-12 2.53577e-17)
(650 4.90143e-07 4.31632e-17)
(650 1.84043e-05 2.1546e-17)
(650 0.000630294 -2.1652e-17)
(650 0.0143484 2.1168e-17)
(650 -0.000461025 8.10915e-20)
(649.999 8.42146e-05 -4.17165e-17)
(650 -0.00368599 3.92489e-23)
(650 -0.00131947 2.04131e-20)
(650 -7.38312e-05 -4.18221e-17)
(650 -5.42004e-06 -4.63268e-26)
(650 -1.08012e-06 2.09317e-17)
(650 -6.16637e-08 0)
(650 5.04906e-11 2.03859e-20)
(650 2.2181e-09 2.08232e-17)
(650 1.37995e-08 0)
(650 5.45205e-08 -2.09571e-17)
(650 1.61446e-07 -4.25158e-17)
(650 4.07035e-07 3.40063e-19)
(650 9.62267e-07 2.18778e-17)
(650 7.47899e-07 1.02181e-17)
(650 4.62714e-06 0)
(650 7.10498e-06 1.38413e-18)
(651.374 5.9998 4.32826e-17)
(647.511 9.84888 -4.21836e-17)
(655.099 4.98285 1.82815e-17)
(652.745 8.33825 0)
(645.256 6.28282 -2.32522e-17)
(655.328 -0.182542 1.89432e-20)
(647.165 1.67805 1.93697e-17)
(649.32 -1.35674 4.42652e-20)
(648.448 -2.50399 0)
(652.61 1.27711 2.15365e-17)
(648.199 1.94151 7.2513e-19)
(645.431 1.72321 0)
(582.775 44.1744 -1.76456e-17)
(568.162 127.514 2.01676e-17)
(519.804 45.3295 -5.6103e-18)
(444.431 12.43 0)
(583.834 239.481 -9.0193e-18)
(507.588 400.138 0)
(650 -6.16501e-12 -4.27408e-17)
(650 8.77061e-09 2.10743e-17)
(650 -3.98853e-12 -1.0158e-17)
(650 -4.75411e-07 -1.11645e-17)
(653.383 -3.10867 -2.17915e-17)
(653.853 -5.48414 -2.32121e-17)
(655.451 -5.43724 -5.05997e-17)
(650 1.69905e-12 0)
(650 -3.44949e-11 3.56726e-17)
(650 -2.80098e-10 0)
(649.966 -0.0329291 -9.94738e-18)
(641.526 -9.80784 0)
(650 -8.24911e-09 -1.08991e-17)
(650 -7.24764e-12 2.16148e-17)
(650 -2.47304e-13 0)
(650 -1.33822e-13 2.01046e-17)
(650 7.8119e-13 0)
(650 -1.26399e-11 -2.22135e-17)
(650 -1.01711e-06 1.09601e-18)
(650 -4.282e-08 -3.40709e-17)
(650 8.13331e-09 3.34683e-19)
(650 -1.39235e-10 -2.13375e-17)
(652.386 -13.915 2.04429e-17)
(650 -6.08377e-10 0)
(650 1.76789e-07 0)
(650 5.58006e-07 2.22381e-17)
(650 6.56495e-06 -2.15124e-17)
(650 0.000222165 -2.1584e-17)
(650.012 0.0101525 0)
(649.979 0.0285626 2.08394e-17)
(649.998 0.00171405 2.07946e-21)
(650 0.00114825 5.0821e-21)
(650.002 -0.00366739 2.08734e-17)
(650 -0.00738627 -2.08171e-17)
(650 -0.000200337 -2.08909e-17)
(650 -1.11063e-05 2.08759e-17)
(650 -1.68423e-06 -2.09018e-17)
(650 -1.07703e-07 -2.08593e-17)
(650 4.16152e-10 2.09104e-17)
(650 5.38698e-09 0)
(650 2.22324e-08 -2.09054e-17)
(650 9.88434e-08 2.09842e-17)
(650 7.84627e-08 4.279e-17)
(650 -4.72992e-08 -2.2297e-17)
(650 -9.94606e-07 2.10405e-17)
(650 -6.77178e-07 -2.25958e-17)
(650 -2.37193e-07 -1.87521e-17)
(650 -4.07731e-10 -5.14094e-28)
(650 4.36943e-09 2.10588e-17)
(650 2.87152e-08 -2.1241e-17)
(652.025 -12.1522 2.11859e-17)
(649.825 -4.26904 -7.64013e-18)
(650 9.02575e-07 -2.32078e-17)
(650.058 -0.1693 2.20803e-17)
(652.465 -8.69568 2.08118e-17)
(650 -3.6124e-11 -2.17014e-17)
(650 4.70721e-11 2.35425e-17)
(650 5.37366e-10 2.17815e-17)
(579.506 -62.9978 5.33249e-18)
(650 1.40393e-12 -1.77473e-17)
(652.105 -12.4839 -2.06174e-17)
(652.611 -16.49 2.15597e-17)
(651.826 -10.3491 2.1201e-17)
(652.617 -19.8827 0)
(652.033 -12.9008 2.2478e-17)
(651.688 -14.3005 -1.99458e-17)
(647.899 -7.82603 0)
(649.263 -11.067 0)
(647.05 -9.80033 2.01719e-17)
(646.398 -3.64353 -2.00319e-17)
(648.866 3.88195 -2.0327e-17)
(646.827 -1.55993 0)
(646.414 3.38888 -3.78451e-20)
(652.847 8.62034 0)
(650.063 4.41489 -1.69874e-19)
(650.588 5.31736 2.00633e-17)
(648.051 13.5589 -1.2999e-17)
(642.275 73.7769 -1.76155e-17)
(618.502 182.273 -1.13448e-17)
(567.478 200.023 -9.53792e-18)
(603.545 154.251 -1.36736e-17)
(636.957 188.259 0)
(551.72 251.918 -8.20066e-18)
(477.809 424.089 7.57683e-18)
(650 -4.49319e-12 4.42932e-17)
(650 -2.19134e-12 2.88453e-31)
(569.689 29.3552 0)
(574.969 225.23 0)
(493.331 -83.8917 1.72603e-17)
(556.042 104.08 -4.77457e-18)
(620.782 108.41 1.18735e-17)
(599.466 20.2396 1.00726e-17)
(650 -4.75012e-06 4.39019e-17)
(649.437 -0.0594544 0)
(650 1.04956e-08 2.03763e-17)
(649.998 -0.000268522 -1.07504e-17)
(650 -0.000124884 -3.24594e-17)
(641.521 0.636922 -1.52134e-17)
(649.653 -0.866295 -6.68975e-18)
(650 3.53142e-08 -3.84954e-17)
(650 -1.24837e-09 1.10933e-17)
(650 2.34682e-07 -1.51994e-17)
(650 -4.47827e-08 2.04981e-17)
(650 3.30505e-11 4.36104e-17)
(649.963 -0.00580281 -1.83969e-17)
(649.999 -0.00176243 2.39313e-17)
(650 2.69542e-11 -3.59887e-17)
(650 2.48402e-10 -1.2481e-17)
(650 -5.20332e-10 -1.1384e-17)
(650 1.10858e-06 2.15331e-17)
(650 2.31558e-05 0)
(650 5.81886e-11 -3.7979e-18)
(650 -5.50992e-11 1.32452e-17)
(650 -6.63046e-13 0)
(591.785 -33.3006 -2.1618e-17)
(565.351 -145.028 0)
(508.534 -272.585 0)
(410.631 -306.757 -3.63928e-17)
(331.368 -271.442 2.59751e-17)
(341.021 -179.035 -2.12878e-17)
(501.5 -160.47 2.51305e-17)
(561.837 -120.694 2.08646e-17)
(589.892 -66.329 -2.12939e-17)
(563.813 -38.7312 -1.78432e-17)
(649.863 -15.1662 -5.94327e-19)
(651.344 -5.47833 -1.70683e-18)
(650 5.33745e-13 -2.25843e-17)
(650 -4.55448e-13 0)
(650 -5.05001e-13 2.38309e-17)
(651.529 -15.1128 2.08608e-17)
(650.984 -12.1138 -3.12011e-19)
(650 -5.57221e-13 0)
(650 -1.36878e-06 2.07985e-17)
(652.005 -2.59647 -2.32863e-17)
(582.071 364.298 0)
(589.289 372.48 0)
(627.918 281.83 0)
(650 -7.6448e-12 1.03195e-17)
(649.99 0.0225596 2.077e-17)
(649.991 0.0117274 -2.08094e-17)
(650 2.60015e-12 3.50483e-19)
(650 -1.24204e-12 7.23058e-19)
(635.109 -9.59999 -1.06144e-19)
(650.809 -12.0949 2.94519e-17)
(650.007 0.0367195 -2.06585e-17)
(650.009 -0.00122673 0)
(650 9.39576e-07 -2.17612e-17)
(650 1.49792e-07 1.59097e-25)
(648.406 -3.71238 -3.34337e-17)
(651.641 -17.168 -4.2355e-17)
(650 -2.0105e-10 -1.70582e-17)
(650 -2.02623e-12 0)
(650 3.77037e-05 -2.15152e-17)
(650.002 0.00148766 1.68616e-19)
(650.002 0.0277966 0)
(650.001 -0.0138726 2.06716e-17)
(650.006 -0.037328 0)
(649.999 0.054823 -2.08297e-17)
(650.003 -0.0121359 -2.08899e-17)
(650 -0.00142449 -2.09456e-17)
(650 -4.52036e-05 0)
(650 -4.19501e-06 2.0934e-17)
(650 -4.99297e-07 0)
(650 -1.36182e-08 -2.03822e-20)
(650 2.94472e-09 2.09257e-17)
(650 1.0929e-08 0)
(650 5.1484e-08 -2.1048e-17)
(650 1.32853e-07 0)
(650 3.21884e-08 -3.38561e-19)
(650 -5.52622e-07 -2.22119e-17)
(650 -1.25105e-06 1.069e-17)
(611.08 282.656 0)
(650.013 0.0425435 6.65161e-19)
(650 2.17132e-07 -9.53634e-25)
(650 -2.31262e-05 2.1131e-17)
(650 -1.42713e-06 -1.121e-17)
(650 -0.00014878 -2.38336e-17)
(650 2.8415e-07 0)
(650 0.000125555 4.30075e-17)
(650 -8.29203e-07 1.17874e-17)
(650.001 0.00315983 2.15473e-17)
(650 -1.07862e-11 9.6766e-18)
(652.529 -13.2204 -8.3687e-20)
(646.251 -11.4039 -4.7803e-20)
(647.445 -1.87555 0)
(649.237 -9.47124 -2.27763e-17)
(649.069 -6.03499 0)
(651.073 -20.35 -1.50782e-18)
(648.026 -8.21123 -2.07386e-17)
(648.324 -9.33629 0)
(648.066 -0.175144 2.01489e-17)
(650.947 -4.82706 -2.07477e-17)
(644.836 4.72469 2.16736e-17)
(647.89 5.16526 -2.1093e-17)
(652.768 9.33044 0)
(649.917 2.07247 -2.05692e-17)
(649.03 8.76157 1.28333e-17)
(649.724 7.73437 2.40943e-17)
(643.372 33.9465 -3.95338e-18)
(636.562 128.904 1.0105e-17)
(589.25 206.848 -1.98389e-17)
(540.572 155.938 8.75571e-18)
(659.805 130.164 1.45964e-17)
(605.577 208.73 -8.4745e-18)
(650 6.16757e-10 0)
(650 -1.78266e-08 -2.08766e-17)
(597.223 -40.2073 1.3275e-17)
(650 -1.9983e-12 -1.0564e-17)
(650 -3.22069e-12 -2.30212e-17)
(649.973 -0.041068 -1.03391e-17)
(652.601 -8.47375 0)
(650 4.56092e-06 1.61827e-25)
(650 -4.2967e-12 2.20886e-17)
(650 -4.20045e-12 -2.26466e-17)
(650 -1.32089e-12 0)
(650 -3.42398e-07 8.86815e-18)
(650.003 -0.0145281 0)
(650 1.22075e-06 -3.78833e-17)
(650 2.86335e-09 0)
(650 2.86227e-12 -2.27573e-18)
(650 -1.00462e-09 0)
(516.157 -287.983 0)
(596.09 -132.757 1.48734e-17)
(449.14 -351.985 2.49485e-17)
(376.062 -354.066 -1.75779e-17)
(283.583 -273.668 4.11846e-18)
(565.331 -70.013 1.74947e-17)
(481.215 -207.721 5.73273e-17)
(650 -8.78277e-07 9.66025e-26)
(536.571 121.272 -2.05197e-17)
(575.819 138.124 3.22702e-17)
(629.053 132.23 -5.60675e-18)
(650 -1.01399e-07 1.39038e-18)
(545.263 -152.364 0)
(650 -2.38995e-09 -1.8582e-17)
(650 -6.50052e-06 4.14821e-17)
(644.035 164.777 -4.07022e-18)
(560.989 131.345 6.12052e-18)
(597.007 153.287 1.57241e-17)
(640.768 84.9949 -9.67455e-18)
(645.432 20.3468 0)
(650.723 4.55105 -1.8152e-17)
(650.93 2.78845 0)
(654.126 11.4653 4.43576e-21)
(648.723 9.32831 2.0772e-17)
(643.257 6.08146 0)